 vasp.4.6.28 25Jul05 complex 
 executed on             LinuxIFC date 2018.10.09  14:12:40
 running on    8 nodes
 distr:  one band on    1 nodes,    8 groups


--------------------------------------------------------------------------------------------------------


 INCAR:
 POTCAR:   PAW_PBE Mg 05Jan2001                   
 POTCAR:   PAW_PBE Zn 06Sep2000                   
 POTCAR:   PAW_PBE Y_sv 06Sep2000                 
 POTCAR:   PAW_PBE Mg 05Jan2001                   
   VRHFIN =Mg: s2p0                                                             
   LEXCH  = PE                                                                  
   EATOM  =    23.0029 eV,    1.6907 Ry                                         
                                                                                
   TITEL  = PAW_PBE Mg 05Jan2001                                                
   LULTRA =        F    use ultrasoft PP ?                                      
   IUNSCR =        1    unscreen: 0-lin 1-nonlin 2-no                           
   RPACOR =    2.000    partial core radius                                     
   POMASS =   24.305; ZVAL   =    2.000    mass and valenz                      
   RCORE  =    2.000    outmost cutoff radius                                   
   RWIGS  =    2.880; RWIGS  =    1.524    wigner-seitz radius (au A)           
   ENMAX  =  210.012; ENMIN  =  157.509 eV                                      
   ICORE  =        2    local potential                                         
   LCOR   =        T    correct aug charges                                     
   LPAW   =        T    paw PP                                                  
   EAUG   =  274.554                                                            
   DEXC   =    -.136                                                            
   RMAX   =    3.182    core radius for proj-oper                               
   RAUG   =    1.300    factor for augmentation sphere                          
   RDEP   =    2.025    radius for radial grids                                 
   QCUT   =   -3.929; QGAM   =    7.858    optimization parameters              
                                                                                
   Description                                                                  
     l     E      TYP  RCUT    TYP  RCUT                                        
     0   .000     23  2.000                                                     
     0  2.000     23  2.000                                                     
     1   .000     23  2.000                                                     
     1  2.000     23  2.000                                                     
     2   .000     23  2.000                                                     
  local pseudopotential read in
  partial core-charges read in
  atomic valenz-charges read in
  non local Contribution for L=           0  read in
    real space projection operators read in
  non local Contribution for L=           0  read in
    real space projection operators read in
  non local Contribution for L=           1  read in
    real space projection operators read in
  non local Contribution for L=           1  read in
    real space projection operators read in
    PAW grid and wavefunctions read in
 
   number of l-projection  operators is LMAX  =           4
   number of lm-projection operators is LMMAX =           8
 
 POTCAR:   PAW_PBE Zn 06Sep2000                   
   VRHFIN =Zn: d10 p2                                                           
   LEXCH  = PE                                                                  
   EATOM  =  1749.0928 eV,  128.5547 Ry                                         
                                                                                
   TITEL  = PAW_PBE Zn 06Sep2000                                                
   LULTRA =        F    use ultrasoft PP ?                                      
   IUNSCR =        1    unscreen: 0-lin 1-nonlin 2-no                           
   RPACOR =    2.000    partial core radius                                     
   POMASS =   65.390; ZVAL   =   12.000    mass and valenz                      
   RCORE  =    2.300    outmost cutoff radius                                   
   RWIGS  =    2.400; RWIGS  =    1.270    wigner-seitz radius (au A)           
   ENMAX  =  276.727; ENMIN  =  207.545 eV                                      
   RCLOC  =    1.828    cutoff for local pot                                    
   LCOR   =        T    correct aug charges                                     
   LPAW   =        T    paw PP                                                  
   EAUG   =  575.892                                                            
   DEXC   =    -.003                                                            
   RMAX   =    2.772    core radius for proj-oper                               
   RAUG   =    1.300    factor for augmentation sphere                          
   RDEP   =    2.324    radius for radial grids                                 
   QCUT   =   -4.510; QGAM   =    9.020    optimization parameters              
                                                                                
   Description                                                                  
     l     E      TYP  RCUT    TYP  RCUT                                        
     2   .000     23  2.300                                                     
     2   .000     23  2.300                                                     
     0   .000     23  2.300                                                     
     0   .000     23  2.300                                                     
     1  -.200     23  2.300                                                     
     1   .000     23  2.300                                                     
     3   .000      7   .000                                                     
  local pseudopotential read in
  partial core-charges read in
  atomic valenz-charges read in
  non local Contribution for L=           2  read in
    real space projection operators read in
  non local Contribution for L=           2  read in
    real space projection operators read in
  non local Contribution for L=           0  read in
    real space projection operators read in
  non local Contribution for L=           0  read in
    real space projection operators read in
  non local Contribution for L=           1  read in
    real space projection operators read in
  non local Contribution for L=           1  read in
    real space projection operators read in
    PAW grid and wavefunctions read in
 
   number of l-projection  operators is LMAX  =           6
   number of lm-projection operators is LMMAX =          18
 
 POTCAR:   PAW_PBE Y_sv 06Sep2000                 
   VRHFIN =Y: 4s4p5s4d                                                          
   LEXCH  = PE                                                                  
   EATOM  =  1046.2256 eV,   76.8954 Ry                                         
                                                                                
   TITEL  = PAW_PBE Y_sv 06Sep2000                                              
   LULTRA =        F    use ultrasoft PP ?                                      
   IUNSCR =        1    unscreen: 0-lin 1-nonlin 2-no                           
   RPACOR =    2.200    partial core radius                                     
   POMASS =   88.906; ZVAL   =   11.000    mass and valenz                      
   RCORE  =    2.600    outmost cutoff radius                                   
   RWIGS  =    3.430; RWIGS  =    1.815    wigner-seitz radius (au A)           
   ENMAX  =  211.641; ENMIN  =  158.731 eV                                      
   RCLOC  =    2.212    cutoff for local pot                                    
   LCOR   =        T    correct aug charges                                     
   LPAW   =        T    paw PP                                                  
   EAUG   =  363.258                                                            
   DEXC   =     .000                                                            
   RMAX   =    3.169    core radius for proj-oper                               
   RAUG   =    1.300    factor for augmentation sphere                          
   RDEP   =    2.745    radius for radial grids                                 
   QCUT   =   -3.944; QGAM   =    7.888    optimization parameters              
                                                                                
   Description                                                                  
     l     E      TYP  RCUT    TYP  RCUT                                        
     0   .000     23  2.600                                                     
     0   .000     23  2.600                                                     
     1   .000     23  2.600                                                     
     1   .000     23  2.600                                                     
     2   .000     23  2.600                                                     
     2   .000     23  2.600                                                     
     3   .000      7   .000                                                     
  local pseudopotential read in
  partial core-charges read in
  atomic valenz-charges read in
  non local Contribution for L=           0  read in
    real space projection operators read in
  non local Contribution for L=           0  read in
    real space projection operators read in
  non local Contribution for L=           1  read in
    real space projection operators read in
  non local Contribution for L=           1  read in
    real space projection operators read in
  non local Contribution for L=           2  read in
    real space projection operators read in
  non local Contribution for L=           2  read in
    real space projection operators read in
    PAW grid and wavefunctions read in
 
   number of l-projection  operators is LMAX  =           6
   number of lm-projection operators is LMMAX =          18
 
 Optimization of the real space projectors (new method)

 maximal supplied QI-value         = 18.90
 optimisation between [QCUT,QGAM] = [  8.69, 17.57] = [ 21.16, 86.49] Ry 
 Optimized for a Real-space Cutoff    1.50 Angstroem

   l    n(q)    QCUT    max X(q) W(low)/X(q) W(high)/X(q)  e(spline) 
   0      8     8.693    21.263    0.25E-04    0.57E-05    0.11E-07
   0      8     8.693    32.896    0.17E-03    0.18E-03    0.83E-07
   1      7     8.693    18.024    0.20E-04    0.82E-04    0.23E-07
   1      7     8.693    48.877    0.92E-04    0.21E-03    0.19E-06
 Optimization of the real space projectors (new method)

 maximal supplied QI-value         = 16.25
 optimisation between [QCUT,QGAM] = [  8.78, 17.71] = [ 21.57, 87.87] Ry 
 Optimized for a Real-space Cutoff    1.55 Angstroem

   l    n(q)    QCUT    max X(q) W(low)/X(q) W(high)/X(q)  e(spline) 
   2      7     8.776     5.523    0.25E-04    0.61E-04    0.37E-07
   2      7     8.776     9.671    0.20E-03    0.41E-03    0.27E-06
   0      8     8.776    11.246    0.21E-04    0.15E-05    0.57E-08
   0      8     8.776    34.692    0.16E-03    0.15E-03    0.68E-07
   1      8     8.776     4.877    0.32E-04    0.71E-04    0.29E-07
   1      8     8.776     6.599    0.91E-04    0.23E-03    0.83E-07
 Optimization of the real space projectors (new method)

 maximal supplied QI-value         = 14.36
 optimisation between [QCUT,QGAM] = [  8.76, 17.67] = [ 21.49, 87.39] Ry 
 Optimized for a Real-space Cutoff    1.96 Angstroem

   l    n(q)    QCUT    max X(q) W(low)/X(q) W(high)/X(q)  e(spline) 
   0     10     8.761     8.406    0.17E-04    0.25E-05    0.14E-07
   0     10     8.761    10.301    0.37E-04    0.12E-04    0.59E-07
   1     10     8.761     4.485    0.11E-05    0.41E-05    0.34E-07
   1     10     8.761    11.894    0.99E-05    0.55E-04    0.20E-06
   2      9     8.761     4.489    0.16E-04    0.99E-05    0.66E-07
   2      9     8.761    42.100    0.20E-03    0.66E-04    0.63E-06
 PAW_PBE Mg 05Jan2001                   :
 energy of atom  1       EATOM=  -23.0029
 kinetic energy error for atom=    0.0002 (will be added to EATOM!!)
 PAW_PBE Zn 06Sep2000                   :
 energy of atom  2       EATOM=-1749.0928
 kinetic energy error for atom=    0.0293 (will be added to EATOM!!)
 PAW_PBE Y_sv 06Sep2000                 :
 energy of atom  3       EATOM=-1046.2256
 kinetic energy error for atom=    0.0083 (will be added to EATOM!!)
 
 EXHCAR: internal setup
 exchange correlation table for  LEXCH =        8
   RHO(1)=    0.500       N(1)  =     2000
   RHO(2)=  100.500       N(2)  =     4000
 
 POSCAR: New structure                           
  positions in direct lattice
  velocities in cartesian coordinates
 


--------------------------------------------------------------------------------------------------------


 ion  position               nearest neighbor table
   1  0.000  0.165  0.999-  14 3.17  21 3.17   2 3.18  12 3.18   7 3.19   5 3.19 184 3.21 185 3.22
                           192 3.22  11 3.25   4 3.25 205 3.56
   2  0.165  0.000  0.999-  15 3.17  17 3.17  12 3.18   1 3.18   5 3.19   3 3.19 186 3.21 187 3.22
                           185 3.22   8 3.25   6 3.25 205 3.56
   3  0.000  0.669  0.998-  17 3.14  23 3.14 187 3.17 188 3.18 195 3.18  12 3.19   2 3.19   4 3.19
                            11 3.19  13 3.25   8 3.25  10 3.25
   4  0.165  0.502  0.999-  14 3.12  11 3.18 188 3.18 184 3.19   3 3.19  18 3.20   8 3.21   9 3.21
                           189 3.21  13 3.22   5 3.25   1 3.25
   5  0.331  0.331  0.998-  15 3.14  14 3.14 185 3.17 190 3.18 189 3.18   2 3.19   1 3.19  10 3.19
                             9 3.19  19 3.25   6 3.25   4 3.25
   6  0.502  0.165  0.999-  15 3.12   8 3.18 191 3.18 186 3.19   7 3.19  20 3.20  10 3.21  11 3.21
                           190 3.21  16 3.22   5 3.25   2 3.25
   7  0.669  0.000  0.998-  21 3.14  22 3.14 192 3.17 193 3.18 191 3.18   1 3.19  12 3.19   6 3.19
                             8 3.19  16 3.25  11 3.25   9 3.25
   8  0.337  0.835  0.999-  17 3.12   6 3.18 193 3.18 186 3.19   7 3.19  18 3.20   4 3.21   9 3.21
                           188 3.21  16 3.22   3 3.25   2 3.25
   9  0.498  0.663  0.999-  22 3.12  10 3.18 189 3.18 194 3.19   5 3.19  18 3.20   4 3.21   8 3.21
                           193 3.21  19 3.22   7 3.25  12 3.25
  10  0.663  0.498  0.999-  23 3.12   9 3.18 190 3.18 194 3.19   5 3.19  20 3.20   6 3.21  11 3.21
                           195 3.21  19 3.22   3 3.25  12 3.25
  11  0.835  0.337  0.999-  21 3.12   4 3.18 195 3.18 184 3.19   3 3.19  20 3.20   6 3.21  10 3.21
                           191 3.21  13 3.22   7 3.25   1 3.25
  12  0.835  0.835  0.999-  23 3.17  22 3.17   2 3.18   1 3.18   3 3.19   7 3.19 194 3.21 192 3.22
                           187 3.22   9 3.25  10 3.25 205 3.56
  13  0.000  0.503  0.056-  24 3.13  29 3.13  17 3.13  23 3.13  20 3.21  18 3.21   4 3.22  11 3.22
                            21 3.22  14 3.22   3 3.25 206 3.64
  14  0.173  0.341  0.053- 196 2.74   4 3.12  19 3.13  18 3.13   5 3.14   1 3.17  13 3.22  15 3.25
                            24 3.31  21 3.33 205 3.34 207 3.34
  15  0.341  0.173  0.053- 197 2.74   6 3.12  19 3.13  20 3.13   5 3.14   2 3.17  16 3.22  14 3.25
                            25 3.31  17 3.33 205 3.34 207 3.34
  16  0.503  0.000  0.056-  26 3.13  25 3.13  21 3.13  22 3.13  20 3.21  18 3.21   8 3.22   6 3.22
                            15 3.22  17 3.22   7 3.25 208 3.64
  17  0.169  0.827  0.053- 197 2.74   8 3.12  13 3.13  18 3.13   3 3.14   2 3.17  16 3.22  23 3.25
                            26 3.31  15 3.33 205 3.34 206 3.34
  18  0.333  0.667  0.055-  17 3.13  22 3.13  14 3.13  26 3.16  27 3.16  24 3.16   8 3.20   9 3.20
                             4 3.20  16 3.21  13 3.21  19 3.21
  19  0.497  0.497  0.056-  28 3.13  27 3.13  14 3.13  15 3.13  18 3.21  20 3.21  10 3.22   9 3.22
                            22 3.22  23 3.22   5 3.25 207 3.64
  20  0.667  0.333  0.055-  21 3.13  15 3.13  23 3.13  25 3.16  29 3.16  28 3.16   6 3.20  11 3.20
                            10 3.20  16 3.21  13 3.21  19 3.21
  21  0.827  0.169  0.053- 196 2.74  11 3.12  16 3.13  20 3.13   7 3.14   1 3.17  13 3.22  22 3.25
                            29 3.31  14 3.33 205 3.34 208 3.34
  22  0.659  0.831  0.053- 198 2.74   9 3.12  16 3.13  18 3.13   7 3.14  12 3.17  19 3.22  21 3.25
                            27 3.31  23 3.33 205 3.34 208 3.34
  23  0.831  0.659  0.053- 198 2.74  10 3.12  13 3.13  20 3.13   3 3.14  12 3.17  19 3.22  17 3.25
                            28 3.31  22 3.33 205 3.34 206 3.34
  24  0.166  0.512  0.110- 196 2.78  30 3.09  26 3.11  27 3.11  13 3.13  18 3.16  29 3.19  14 3.31
                           209 3.33  31 3.34 207 3.40 206 3.55
  25  0.512  0.166  0.110- 197 2.78  33 3.09  28 3.11  29 3.11  16 3.13  20 3.16  26 3.19  15 3.31
                           210 3.33  32 3.34 207 3.40 208 3.55
  26  0.346  0.834  0.110- 197 2.78  34 3.09  24 3.11  27 3.11  16 3.13  18 3.16  25 3.19  17 3.31
                           210 3.33  30 3.34 206 3.40 208 3.55
  27  0.488  0.654  0.110- 198 2.78  31 3.09  24 3.11  26 3.11  19 3.13  18 3.16  28 3.19  22 3.31
                           211 3.33  34 3.34 208 3.40 207 3.55
  28  0.654  0.488  0.110- 198 2.78  32 3.09  25 3.11  29 3.11  19 3.13  20 3.16  27 3.19  23 3.31
                           211 3.33  35 3.34 206 3.40 207 3.55
  29  0.834  0.346  0.110- 196 2.78  35 3.09  25 3.11  28 3.11  13 3.13  20 3.16  24 3.19  21 3.31
                           209 3.33  33 3.34 208 3.40 206 3.55
  30  0.166  0.654  0.168- 200 2.76  24 3.09  34 3.11  31 3.11  36 3.13  41 3.15  35 3.20 206 3.33
                            40 3.33  26 3.34 210 3.39 209 3.54
  31  0.346  0.512  0.168- 199 2.76  27 3.09  34 3.11  30 3.11  42 3.13  41 3.15  32 3.20 207 3.33
                            37 3.33  24 3.34 209 3.39 211 3.54
  32  0.512  0.346  0.168- 199 2.76  28 3.09  33 3.11  35 3.11  42 3.13  43 3.15  31 3.20 207 3.33
                            38 3.33  25 3.34 210 3.39 211 3.54
  33  0.654  0.166  0.168- 201 2.76  25 3.09  32 3.11  35 3.11  39 3.13  43 3.15  34 3.20 208 3.33
                            44 3.33  29 3.34 209 3.39 210 3.54
  34  0.488  0.834  0.168- 201 2.76  26 3.09  31 3.11  30 3.11  39 3.13  41 3.15  33 3.20 208 3.33
                            45 3.33  27 3.34 211 3.39 210 3.54
  35  0.834  0.488  0.168- 200 2.76  29 3.09  33 3.11  32 3.11  36 3.13  43 3.15  30 3.20 206 3.33
                            46 3.33  28 3.34 211 3.39 209 3.54
  36  0.000  0.497  0.222-  35 3.13  30 3.13  44 3.16  37 3.16  58 3.20  51 3.20  43 3.21  41 3.21
                            40 3.22  46 3.22  47 3.24 209 3.62
  37  0.169  0.339  0.225- 199 2.75  47 3.10  52 3.12  36 3.16  41 3.16  48 3.18  42 3.22  44 3.26
                            38 3.28  31 3.33 212 3.33 209 3.35
  38  0.339  0.169  0.225- 199 2.75  49 3.10  53 3.12  39 3.16  43 3.16  48 3.18  42 3.22  40 3.26
                            37 3.28  32 3.33 212 3.33 210 3.35
  39  0.497  0.000  0.222-  33 3.13  34 3.13  38 3.16  40 3.16  54 3.20  56 3.20  43 3.21  41 3.21
                            44 3.22  45 3.22  49 3.24 210 3.62
  40  0.170  0.831  0.225- 200 2.75  49 3.10  51 3.12  39 3.16  41 3.16  50 3.18  36 3.22  38 3.26
                            46 3.28  30 3.33 212 3.33 210 3.35
  41  0.333  0.667  0.223-  34 3.15  30 3.15  31 3.15  40 3.16  45 3.16  37 3.16  56 3.20  51 3.20
                            52 3.20  39 3.21  36 3.21  42 3.21
  42  0.503  0.503  0.222-  31 3.13  32 3.13  45 3.16  46 3.16  52 3.20  53 3.20  41 3.21  43 3.21
                            37 3.22  38 3.22  57 3.24 211 3.62
  43  0.667  0.333  0.223-  33 3.15  32 3.15  35 3.15  44 3.16  38 3.16  46 3.16  54 3.20  53 3.20
                            58 3.20  39 3.21  36 3.21  42 3.21
  44  0.831  0.170  0.225- 201 2.75  47 3.10  54 3.12  36 3.16  43 3.16  55 3.18  39 3.22  37 3.26
                            45 3.28  33 3.33 212 3.33 209 3.35
  45  0.661  0.830  0.225- 201 2.75  57 3.10  56 3.12  42 3.16  41 3.16  55 3.18  39 3.22  46 3.26
                            44 3.28  34 3.33 212 3.33 211 3.35
  46  0.830  0.661  0.225- 200 2.75  57 3.10  58 3.12  42 3.16  43 3.16  50 3.18  36 3.22  45 3.26
                            40 3.28  35 3.33 212 3.33 211 3.35
  47  0.000  0.329  0.279-  44 3.10  37 3.10  59 3.15  67 3.16  60 3.16  48 3.17  55 3.17  58 3.20
                            51 3.20  36 3.24  54 3.27  52 3.27
  48  0.161  0.161  0.279-  55 3.11  50 3.11  60 3.14  61 3.14  47 3.17  49 3.17  37 3.18  38 3.18
                            52 3.30  53 3.30 212 3.65 213 3.68
  49  0.329  0.000  0.279-  38 3.10  40 3.10  62 3.15  61 3.16  63 3.16  50 3.17  48 3.17  54 3.20
                            56 3.20  39 3.24  53 3.27  51 3.27
  50  0.000  0.839  0.279-  55 3.11  48 3.11  69 3.14  63 3.14  57 3.17  49 3.17  46 3.18  40 3.18
                            51 3.30  58 3.30 212 3.65 213 3.68
  51  0.164  0.660  0.279-  40 3.12  63 3.14  58 3.16  59 3.17  47 3.20  41 3.20  56 3.20  52 3.20
                            36 3.20  64 3.21  49 3.27  50 3.30
  52  0.340  0.504  0.279-  37 3.12  60 3.14  53 3.16  65 3.17  57 3.20  41 3.20  56 3.20  51 3.20
                            42 3.20  64 3.21  47 3.27  48 3.30
  53  0.504  0.340  0.279-  38 3.12  61 3.14  52 3.16  65 3.17  57 3.20  43 3.20  54 3.20  58 3.20
                            42 3.20  66 3.21  49 3.27  48 3.30
  54  0.660  0.164  0.279-  44 3.12  67 3.14  56 3.16  62 3.17  49 3.20  43 3.20  53 3.20  58 3.20
                            39 3.20  66 3.21  47 3.27  55 3.30
  55  0.839  0.000  0.279-  48 3.11  50 3.11  68 3.14  67 3.14  47 3.17  57 3.17  45 3.18  44 3.18
                            56 3.30  54 3.30 212 3.65 213 3.68
  56  0.496  0.836  0.279-  45 3.12  68 3.14  54 3.16  62 3.17  49 3.20  41 3.20  52 3.20  51 3.20
                            39 3.20  64 3.21  57 3.27  55 3.30
  57  0.671  0.671  0.279-  45 3.10  46 3.10  65 3.15  68 3.16  69 3.16  55 3.17  50 3.17  52 3.20
                            53 3.20  42 3.24  56 3.27  58 3.27
  58  0.836  0.496  0.279-  46 3.12  69 3.14  51 3.16  59 3.17  47 3.20  43 3.20  54 3.20  53 3.20
                            36 3.20  66 3.21  57 3.27  50 3.30
  59  0.000  0.492  0.334-  47 3.15  58 3.17  51 3.17  67 3.18  60 3.18  75 3.18  70 3.18  63 3.21
                            69 3.21  66 3.21  64 3.21 214 3.31
  60  0.175  0.337  0.333- 202 3.05  61 3.12  52 3.14  48 3.14  47 3.16 214 3.18  64 3.18  59 3.18
                            65 3.21  71 3.27 213 3.32  67 3.37
  61  0.337  0.175  0.333- 202 3.05  60 3.12  53 3.14  48 3.14  49 3.16 215 3.18  66 3.18  62 3.18
                            65 3.21  72 3.27 213 3.32  63 3.37
  62  0.492  0.000  0.334-  49 3.15  54 3.17  56 3.17  61 3.18  63 3.18  73 3.18  74 3.18  67 3.21
                            68 3.21  66 3.21  64 3.21 215 3.31
  63  0.162  0.825  0.333- 203 3.05  69 3.12  51 3.14  50 3.14  49 3.16 215 3.18  64 3.18  62 3.18
                            59 3.21  70 3.27 213 3.32  61 3.37
  64  0.333  0.667  0.335-  74 3.16  70 3.16  71 3.16  63 3.18  68 3.18  60 3.18  56 3.21  51 3.21
                            52 3.21  62 3.21  59 3.21  65 3.21
  65  0.508  0.508  0.334-  57 3.15  52 3.17  53 3.17  68 3.18  69 3.18  71 3.18  72 3.18  61 3.21
                            60 3.21  64 3.21  66 3.21 216 3.31
  66  0.667  0.333  0.335-  73 3.16  72 3.16  75 3.16  67 3.18  61 3.18  69 3.18  54 3.21  53 3.21
                            58 3.21  62 3.21  59 3.21  65 3.21
  67  0.825  0.162  0.333- 204 3.05  68 3.12  54 3.14  55 3.14  47 3.16 214 3.18  66 3.18  59 3.18
                            62 3.21  73 3.27 213 3.32  60 3.37
  68  0.663  0.838  0.333- 204 3.05  67 3.12  56 3.14  55 3.14  57 3.16 216 3.18  64 3.18  65 3.18
                            62 3.21  74 3.27 213 3.32  69 3.37
  69  0.838  0.663  0.333- 203 3.05  63 3.12  58 3.14  50 3.14  57 3.16 216 3.18  66 3.18  65 3.18
                            59 3.21  75 3.27 213 3.32  68 3.37
  70  0.163  0.655  0.390- 203 2.80  75 3.14  82 3.14  64 3.16  77 3.16  74 3.18  71 3.18  59 3.18
                            81 3.25  63 3.27 215 3.34 214 3.37
  71  0.345  0.508  0.390- 202 2.80  72 3.14  82 3.14  64 3.16  83 3.16  74 3.18  70 3.18  65 3.18
                            78 3.25  60 3.27 214 3.34 216 3.37
  72  0.508  0.345  0.390- 202 2.80  71 3.14  84 3.14  66 3.16  83 3.16  73 3.18  75 3.18  65 3.18
                            79 3.25  61 3.27 215 3.34 216 3.37
  73  0.655  0.163  0.390- 204 2.80  74 3.14  84 3.14  66 3.16  80 3.16  72 3.18  75 3.18  62 3.18
                            85 3.25  67 3.27 214 3.34 215 3.37
  74  0.492  0.837  0.390- 204 2.80  73 3.14  82 3.14  64 3.16  80 3.16  71 3.18  70 3.18  62 3.18
                            86 3.25  68 3.27 216 3.34 215 3.37
  75  0.837  0.492  0.390- 203 2.80  70 3.14  84 3.14  66 3.16  77 3.16  73 3.18  72 3.18  59 3.18
                            87 3.25  69 3.27 216 3.34 214 3.37
  76  0.000  0.000  0.422- 204 2.90 202 2.90 203 2.90  78 3.36  87 3.36  86 3.36  79 3.36  81 3.36
                            85 3.36 213 3.48 214 3.73 216 3.73 215 3.73
  77  0.000  0.491  0.446-  88 3.15  75 3.16  70 3.16  85 3.18  78 3.18  99 3.19  92 3.19  84 3.21
                            82 3.21  81 3.27  87 3.27 214 3.34
  78  0.170  0.330  0.446-  79 3.10 202 3.11  89 3.13  93 3.15 214 3.17  77 3.18  88 3.22  82 3.24
                            71 3.25  85 3.27  83 3.27  76 3.36
  79  0.330  0.170  0.446-  78 3.10 202 3.11  89 3.13  94 3.15 215 3.17  80 3.18  90 3.22  84 3.24
                            72 3.25  81 3.27  83 3.27  76 3.36
  80  0.491  0.000  0.446-  90 3.15  73 3.16  74 3.16  79 3.18  81 3.18  95 3.19  97 3.19  84 3.21
                            82 3.21  85 3.27  86 3.27 215 3.34
  81  0.161  0.830  0.446-  87 3.10 203 3.11  91 3.13  92 3.15 215 3.17  80 3.18  90 3.22  82 3.24
                            70 3.25  79 3.27  77 3.27  76 3.36
  82  0.333  0.667  0.445-  74 3.14  70 3.14  71 3.14  97 3.20  92 3.20  93 3.20  80 3.21  77 3.21
                            83 3.21  81 3.24  86 3.24  78 3.24
  83  0.509  0.509  0.446-  98 3.15  71 3.16  72 3.16  86 3.18  87 3.18  93 3.19  94 3.19  82 3.21
                            84 3.21  79 3.27  78 3.27 216 3.34
  84  0.667  0.333  0.445-  73 3.14  72 3.14  75 3.14  95 3.20  94 3.20  99 3.20  80 3.21  77 3.21
                            83 3.21  85 3.24  79 3.24  87 3.24
  85  0.830  0.161  0.446-  86 3.10 204 3.11  96 3.13  95 3.15 214 3.17  77 3.18  88 3.22  84 3.24
                            73 3.25  78 3.27  80 3.27  76 3.36
  86  0.670  0.839  0.446-  85 3.10 204 3.11  96 3.13  97 3.15 216 3.17  83 3.18  98 3.22  82 3.24
                            74 3.25  87 3.27  80 3.27  76 3.36
  87  0.839  0.670  0.446-  81 3.10 203 3.11  91 3.13  99 3.15 216 3.17  83 3.18  98 3.22  84 3.24
                            75 3.25  86 3.27  77 3.27  76 3.36
  88  0.000  0.332  0.501-  77 3.15 109 3.16 102 3.16 101 3.16  89 3.20  96 3.20  95 3.21  93 3.21
                            85 3.22  78 3.22  99 3.22  92 3.22
  89  0.164  0.164  0.500-  78 3.13  79 3.13  96 3.15  91 3.15 100 3.18  88 3.20  90 3.20 102 3.20
                           103 3.20  93 3.24  94 3.24
  90  0.332  0.000  0.501-  80 3.15 103 3.16 105 3.16 104 3.16  91 3.20  89 3.20  94 3.21  92 3.21
                            79 3.22  81 3.22  95 3.22  97 3.22
  91  0.000  0.836  0.500-  87 3.13  81 3.13  96 3.15  89 3.15 100 3.18  98 3.20  90 3.20 111 3.20
                           105 3.20  92 3.24  99 3.24
  92  0.166  0.666  0.500-  81 3.15  77 3.19 101 3.19 106 3.19  82 3.20 105 3.20  99 3.20  90 3.21
                            97 3.22  93 3.22  88 3.22  91 3.24
  93  0.334  0.500  0.500-  78 3.15  83 3.19 107 3.19 106 3.19  82 3.20 102 3.20  94 3.20  88 3.21
                            97 3.22  92 3.22  98 3.22  89 3.24
  94  0.500  0.334  0.500-  79 3.15  83 3.19 107 3.19 108 3.19  84 3.20 103 3.20  93 3.20  90 3.21
                            95 3.22  99 3.22  98 3.22  89 3.24
  95  0.666  0.166  0.500-  85 3.15  80 3.19 104 3.19 108 3.19  84 3.20 109 3.20  97 3.20  88 3.21
                            94 3.22  99 3.22  90 3.22  96 3.24
  96  0.836  0.000  0.500-  86 3.13  85 3.13  89 3.15  91 3.15 100 3.18  88 3.20  98 3.20 110 3.20
                           109 3.20  97 3.24  95 3.24
  97  0.500  0.834  0.500-  86 3.15  80 3.19 104 3.19 106 3.19  82 3.20 110 3.20  95 3.20  98 3.21
                            93 3.22  92 3.22  90 3.22  96 3.24
  98  0.668  0.668  0.501-  83 3.15 110 3.16 111 3.16 107 3.16  96 3.20  91 3.20  97 3.21  99 3.21
                            86 3.22  87 3.22  93 3.22  94 3.22
  99  0.834  0.500  0.500-  87 3.15  77 3.19 101 3.19 108 3.19  84 3.20 111 3.20  92 3.20  98 3.21
                            95 3.22  94 3.22  88 3.22  91 3.24
 100  0.000  0.000  0.556-  96 3.18  89 3.18  91 3.18 120 3.18 113 3.18 115 3.18 102 3.21 111 3.21
                           110 3.21 103 3.21 105 3.21 109 3.21
 101  0.000  0.500  0.556-  88 3.16 123 3.18 116 3.18  99 3.19  92 3.19 112 3.20 105 3.21 111 3.21
                           108 3.21 106 3.21 109 3.22 102 3.22
 102  0.167  0.333  0.556-  88 3.16 113 3.18 117 3.18 112 3.19 103 3.20  93 3.20  89 3.20 107 3.21
                           100 3.21 106 3.22 101 3.22 109 3.22
 103  0.333  0.167  0.556-  90 3.16 113 3.18 118 3.18 114 3.19 102 3.20  94 3.20  89 3.20 107 3.21
                           100 3.21 108 3.22 104 3.22 105 3.22
 104  0.500  0.000  0.556-  90 3.16 119 3.18 121 3.18  95 3.19  97 3.19 114 3.20 109 3.21 110 3.21
                           108 3.21 106 3.21 105 3.22 103 3.22
 105  0.166  0.833  0.556-  90 3.16 115 3.18 116 3.18 114 3.19 111 3.20  92 3.20  91 3.20 101 3.21
                           100 3.21 106 3.22 104 3.22 103 3.22
 106  0.333  0.667  0.556- 121 3.19 116 3.19 117 3.19  97 3.19  92 3.19  93 3.19 104 3.21 101 3.21
                           107 3.21 105 3.22 110 3.22 102 3.22
 107  0.500  0.500  0.556-  98 3.16 117 3.18 118 3.18  93 3.19  94 3.19 122 3.20 103 3.21 102 3.21
                           106 3.21 108 3.21 110 3.22 111 3.22
 108  0.667  0.333  0.556- 119 3.19 118 3.19 123 3.19  95 3.19  94 3.19  99 3.19 104 3.21 101 3.21
                           107 3.21 109 3.22 103 3.22 111 3.22
 109  0.833  0.166  0.556-  88 3.16 120 3.18 119 3.18 112 3.19 110 3.20  95 3.20  96 3.20 104 3.21
                           100 3.21 108 3.22 101 3.22 102 3.22
 110  0.667  0.834  0.556-  98 3.16 120 3.18 121 3.18 122 3.19 109 3.20  97 3.20  96 3.20 104 3.21
                           100 3.21 106 3.22 107 3.22 111 3.22
 111  0.834  0.667  0.556-  98 3.16 115 3.18 123 3.18 122 3.19 105 3.20  99 3.20  91 3.20 101 3.21
                           100 3.21 108 3.22 107 3.22 110 3.22
 112  0.000  0.333  0.612- 125 3.17 133 3.17 126 3.17 109 3.19 102 3.19 101 3.20 113 3.21 120 3.21
                           123 3.21 116 3.21 119 3.21 117 3.21
 113  0.167  0.167  0.611- 102 3.18 103 3.18 126 3.18 127 3.18 100 3.18 124 3.18 112 3.21 114 3.21
                           120 3.21 115 3.21 117 3.21 118 3.21
 114  0.333  0.000  0.612- 128 3.17 127 3.17 129 3.17 103 3.19 105 3.19 104 3.20 115 3.21 113 3.21
                           119 3.21 121 3.21 118 3.21 116 3.21
 115  0.000  0.833  0.611- 111 3.18 105 3.18 135 3.18 129 3.18 100 3.18 124 3.18 122 3.21 114 3.21
                           120 3.21 113 3.21 116 3.21 123 3.21
 116  0.167  0.667  0.611- 105 3.18 130 3.18 125 3.18 101 3.18 129 3.19 106 3.19 121 3.21 117 3.21
                           112 3.21 123 3.21 114 3.21 115 3.21
 117  0.333  0.500  0.611- 102 3.18 130 3.18 131 3.18 107 3.18 126 3.19 106 3.19 121 3.21 116 3.21
                           122 3.21 118 3.21 112 3.21 113 3.21
 118  0.500  0.333  0.611- 103 3.18 132 3.18 131 3.18 107 3.18 127 3.19 108 3.19 119 3.21 123 3.21
                           122 3.21 117 3.21 114 3.21 113 3.21
 119  0.667  0.167  0.611- 109 3.18 132 3.18 128 3.18 104 3.18 133 3.19 108 3.19 118 3.21 123 3.21
                           114 3.21 121 3.21 112 3.21 120 3.21
 120  0.833  0.000  0.611- 110 3.18 109 3.18 134 3.18 133 3.18 100 3.18 124 3.18 112 3.21 122 3.21
                           113 3.21 115 3.21 121 3.21 119 3.21
 121  0.500  0.833  0.611- 110 3.18 130 3.18 128 3.18 104 3.18 134 3.19 106 3.19 117 3.21 116 3.21
                           114 3.21 119 3.21 122 3.21 120 3.21
 122  0.667  0.667  0.612- 131 3.17 134 3.17 135 3.17 110 3.19 111 3.19 107 3.20 120 3.21 115 3.21
                           117 3.21 118 3.21 121 3.21 123 3.21
 123  0.833  0.500  0.611- 111 3.18 132 3.18 125 3.18 101 3.18 135 3.19 108 3.19 119 3.21 118 3.21
                           112 3.21 116 3.21 122 3.21 115 3.21
 124  0.000  0.000  0.667- 144 3.18 137 3.18 139 3.18 120 3.18 113 3.18 115 3.18 126 3.21 135 3.21
                           134 3.21 127 3.21 129 3.21 133 3.21
 125  0.000  0.500  0.667- 112 3.17 147 3.18 140 3.18 136 3.18 123 3.18 116 3.18 133 3.21 126 3.21
                           132 3.21 130 3.21 129 3.21 135 3.21
 126  0.167  0.333  0.667- 112 3.17 137 3.18 141 3.18 113 3.18 136 3.18 117 3.19 125 3.21 133 3.21
                           124 3.21 127 3.21 130 3.21 131 3.21
 127  0.333  0.167  0.667- 114 3.17 137 3.18 142 3.18 113 3.18 138 3.18 118 3.19 128 3.21 129 3.21
                           124 3.21 126 3.21 132 3.21 131 3.21
 128  0.500  0.000  0.667- 114 3.17 143 3.18 145 3.18 138 3.18 119 3.18 121 3.18 129 3.21 127 3.21
                           132 3.21 130 3.21 133 3.21 134 3.21
 129  0.167  0.833  0.667- 114 3.17 139 3.18 140 3.18 115 3.18 138 3.18 116 3.19 128 3.21 127 3.21
                           124 3.21 135 3.21 130 3.21 125 3.21
 130  0.333  0.667  0.667- 121 3.18 116 3.18 117 3.18 145 3.18 140 3.18 141 3.18 128 3.21 125 3.21
                           131 3.21 129 3.21 134 3.21 126 3.21
 131  0.500  0.500  0.667- 122 3.17 141 3.18 142 3.18 146 3.18 117 3.18 118 3.18 134 3.21 135 3.21
                           130 3.21 132 3.21 127 3.21 126 3.21
 132  0.667  0.333  0.667- 119 3.18 118 3.18 123 3.18 143 3.18 142 3.18 147 3.18 128 3.21 125 3.21
                           131 3.21 133 3.21 127 3.21 135 3.21
 133  0.833  0.167  0.667- 112 3.17 144 3.18 143 3.18 120 3.18 136 3.18 119 3.19 125 3.21 126 3.21
                           124 3.21 134 3.21 132 3.21 128 3.21
 134  0.667  0.833  0.667- 122 3.17 144 3.18 145 3.18 120 3.18 146 3.18 121 3.19 131 3.21 135 3.21
                           124 3.21 133 3.21 130 3.21 128 3.21
 135  0.833  0.667  0.667- 122 3.17 139 3.18 147 3.18 115 3.18 146 3.18 123 3.19 131 3.21 134 3.21
                           124 3.21 129 3.21 132 3.21 125 3.21
 136  0.000  0.333  0.722- 157 3.18 150 3.18 149 3.18 133 3.18 126 3.18 125 3.18 147 3.21 140 3.21
                           137 3.21 144 3.21 143 3.21 141 3.21
 137  0.167  0.167  0.722- 126 3.18 127 3.18 124 3.18 148 3.18 150 3.18 151 3.18 136 3.21 138 3.21
                           141 3.21 142 3.21 144 3.22 139 3.22
 138  0.333  0.000  0.722- 151 3.18 153 3.18 152 3.18 127 3.18 129 3.18 128 3.18 143 3.21 145 3.21
                           139 3.21 137 3.21 142 3.21 140 3.21
 139  0.000  0.833  0.722- 135 3.18 129 3.18 124 3.18 148 3.18 159 3.18 153 3.18 146 3.21 138 3.21
                           140 3.21 147 3.21 144 3.22 137 3.22
 140  0.167  0.666  0.722- 153 3.18 149 3.18 154 3.18 129 3.18 130 3.18 125 3.18 145 3.21 141 3.21
                           136 3.21 139 3.21 147 3.21 138 3.21
 141  0.334  0.500  0.722- 150 3.18 155 3.18 154 3.18 126 3.18 130 3.18 131 3.18 145 3.21 140 3.21
                           146 3.21 137 3.21 142 3.21 136 3.21
 142  0.500  0.334  0.722- 151 3.18 155 3.18 156 3.18 127 3.18 132 3.18 131 3.18 143 3.21 147 3.21
                           146 3.21 137 3.21 141 3.21 138 3.21
 143  0.666  0.167  0.722- 157 3.18 152 3.18 156 3.18 133 3.18 132 3.18 128 3.18 142 3.21 147 3.21
                           138 3.21 144 3.21 145 3.21 136 3.21
 144  0.833  0.000  0.722- 134 3.18 133 3.18 124 3.18 148 3.18 158 3.18 157 3.18 136 3.21 146 3.21
                           145 3.21 143 3.21 137 3.22 139 3.22
 145  0.500  0.833  0.722- 158 3.18 152 3.18 154 3.18 134 3.18 130 3.18 128 3.18 141 3.21 140 3.21
                           138 3.21 144 3.21 143 3.21 146 3.21
 146  0.667  0.667  0.722- 158 3.18 159 3.18 155 3.18 134 3.18 135 3.18 131 3.18 141 3.21 142 3.21
                           144 3.21 139 3.21 145 3.21 147 3.21
 147  0.833  0.500  0.722- 159 3.18 149 3.18 156 3.18 135 3.18 132 3.18 125 3.18 143 3.21 142 3.21
                           136 3.21 139 3.21 140 3.21 146 3.21
 148  0.000  0.000  0.777- 168 3.18 161 3.18 163 3.18 144 3.18 137 3.18 139 3.18 150 3.22 159 3.22
                           158 3.22 151 3.22 153 3.22 157 3.22
 149  0.000  0.500  0.777- 136 3.18 160 3.18 147 3.18 140 3.18 171 3.18 164 3.18 157 3.21 150 3.21
                           156 3.21 154 3.21 153 3.21 159 3.21
 150  0.167  0.334  0.777- 161 3.18 136 3.18 141 3.18 160 3.18 137 3.18 165 3.18 149 3.21 154 3.21
                           155 3.21 157 3.21 148 3.22 151 3.22
 151  0.334  0.167  0.777- 161 3.18 138 3.18 142 3.18 162 3.18 137 3.18 166 3.18 152 3.21 156 3.21
                           155 3.21 153 3.21 148 3.22 150 3.22
 152  0.500  0.000  0.777- 138 3.18 162 3.18 143 3.18 145 3.18 167 3.18 169 3.18 153 3.21 151 3.21
                           156 3.21 154 3.21 157 3.21 158 3.21
 153  0.167  0.833  0.777- 163 3.18 138 3.18 140 3.18 162 3.18 139 3.18 164 3.18 152 3.21 154 3.21
                           149 3.21 151 3.21 148 3.22 159 3.22
 154  0.333  0.667  0.777- 169 3.18 164 3.18 165 3.18 145 3.18 140 3.18 141 3.18 153 3.21 158 3.21
                           150 3.21 152 3.21 149 3.21 155 3.21
 155  0.500  0.500  0.777- 146 3.18 170 3.18 141 3.18 142 3.18 165 3.18 166 3.18 158 3.21 159 3.21
                           154 3.21 156 3.21 150 3.21 151 3.21
 156  0.667  0.333  0.777- 167 3.18 166 3.18 171 3.18 143 3.18 142 3.18 147 3.18 157 3.21 151 3.21
                           159 3.21 152 3.21 149 3.21 155 3.21
 157  0.833  0.167  0.777- 168 3.18 136 3.18 143 3.18 160 3.18 144 3.18 167 3.18 149 3.21 156 3.21
                           152 3.21 150 3.21 148 3.22 158 3.22
 158  0.666  0.833  0.777- 168 3.18 146 3.18 145 3.18 170 3.18 144 3.18 169 3.18 155 3.21 154 3.21
                           152 3.21 159 3.21 148 3.22 157 3.22
 159  0.833  0.666  0.777- 163 3.18 146 3.18 147 3.18 170 3.18 139 3.18 171 3.18 155 3.21 156 3.21
                           149 3.21 158 3.21 148 3.22 153 3.22
 160  0.000  0.334  0.833- 181 3.17 174 3.17 149 3.18 173 3.18 157 3.18 150 3.18 171 3.21 164 3.21
                           167 3.21 165 3.21 161 3.21 168 3.21
 161  0.167  0.167  0.833- 172 3.17 150 3.18 151 3.18 148 3.18 174 3.18 175 3.18 165 3.21 166 3.21
                           160 3.21 162 3.21 168 3.21 163 3.21
 162  0.334  0.000  0.833- 175 3.17 177 3.17 152 3.18 176 3.18 151 3.18 153 3.18 167 3.21 169 3.21
                           166 3.21 164 3.21 163 3.21 161 3.21
 163  0.000  0.833  0.833- 172 3.17 159 3.18 153 3.18 148 3.18 183 3.18 177 3.18 164 3.21 171 3.21
                           170 3.21 162 3.21 168 3.21 161 3.21
 164  0.167  0.667  0.833- 177 3.17 178 3.17 173 3.18 154 3.18 149 3.18 153 3.18 160 3.21 169 3.21
                           165 3.21 163 3.21 171 3.21 162 3.21
 165  0.333  0.500  0.833- 174 3.17 178 3.17 179 3.18 154 3.18 155 3.18 150 3.18 170 3.21 169 3.21
                           164 3.21 161 3.21 166 3.21 160 3.21
 166  0.500  0.333  0.833- 175 3.17 180 3.17 179 3.18 156 3.18 155 3.18 151 3.18 170 3.21 167 3.21
                           171 3.21 161 3.21 165 3.21 162 3.21
 167  0.667  0.167  0.833- 181 3.17 180 3.17 176 3.18 156 3.18 152 3.18 157 3.18 162 3.21 166 3.21
                           171 3.21 168 3.21 169 3.21 160 3.21
 168  0.833  0.000  0.833- 172 3.17 158 3.18 157 3.18 148 3.18 182 3.18 181 3.18 169 3.21 167 3.21
                           160 3.21 170 3.21 161 3.21 163 3.21
 169  0.500  0.833  0.833- 182 3.17 178 3.17 176 3.18 154 3.18 152 3.18 158 3.18 162 3.21 165 3.21
                           164 3.21 168 3.21 167 3.21 170 3.21
 170  0.666  0.666  0.833- 182 3.17 183 3.17 155 3.18 179 3.18 158 3.18 159 3.18 165 3.21 166 3.21
                           169 3.21 171 3.21 168 3.21 163 3.21
 171  0.833  0.500  0.833- 183 3.17 180 3.17 173 3.18 156 3.18 149 3.18 159 3.18 160 3.21 167 3.21
                           166 3.21 163 3.21 164 3.21 170 3.21
 172  0.000  0.000  0.887- 168 3.17 161 3.17 163 3.17 192 3.18 185 3.18 187 3.18 174 3.21 183 3.21
                           182 3.21 175 3.21 177 3.21 181 3.21
 173  0.000  0.500  0.888- 171 3.18 164 3.18 160 3.18 195 3.18 188 3.18 184 3.19 177 3.21 183 3.21
                           181 3.21 174 3.21 180 3.21 178 3.21
 174  0.167  0.334  0.888- 165 3.17 160 3.17 185 3.18 189 3.18 161 3.18 184 3.20 178 3.21 179 3.21
                           173 3.21 181 3.21 172 3.21 175 3.22
 175  0.334  0.167  0.888- 166 3.17 162 3.17 185 3.18 190 3.18 161 3.18 186 3.20 180 3.21 179 3.21
                           176 3.21 177 3.21 172 3.21 174 3.22
 176  0.500  0.000  0.888- 167 3.18 169 3.18 162 3.18 191 3.18 193 3.18 186 3.19 181 3.21 182 3.21
                           177 3.21 175 3.21 180 3.21 178 3.21
 177  0.167  0.833  0.888- 164 3.17 162 3.17 187 3.18 188 3.18 163 3.18 186 3.20 178 3.21 173 3.21
                           176 3.21 175 3.21 172 3.21 183 3.22
 178  0.333  0.667  0.888- 169 3.17 164 3.17 165 3.17 193 3.18 188 3.18 189 3.18 177 3.21 182 3.21
                           174 3.21 176 3.21 173 3.21 179 3.21
 179  0.500  0.500  0.888- 165 3.18 166 3.18 170 3.18 189 3.18 190 3.18 194 3.19 174 3.21 175 3.21
                           182 3.21 183 3.21 178 3.21 180 3.21
 180  0.667  0.333  0.888- 167 3.17 166 3.17 171 3.17 191 3.18 190 3.18 195 3.18 181 3.21 175 3.21
                           183 3.21 176 3.21 173 3.21 179 3.21
 181  0.833  0.167  0.888- 167 3.17 160 3.17 192 3.18 191 3.18 168 3.18 184 3.20 180 3.21 176 3.21
                           173 3.21 174 3.21 172 3.21 182 3.22
 182  0.666  0.833  0.888- 169 3.17 170 3.17 192 3.18 193 3.18 168 3.18 194 3.20 178 3.21 176 3.21
                           179 3.21 183 3.21 172 3.21 181 3.22
 183  0.833  0.666  0.888- 171 3.17 170 3.17 187 3.18 195 3.18 163 3.18 194 3.20 180 3.21 173 3.21
                           179 3.21 182 3.21 172 3.21 177 3.22
 184  0.000  0.333  0.944-  11 3.19   4 3.19 173 3.19 181 3.20 174 3.20 191 3.20 189 3.20 185 3.21
                           192 3.21   1 3.21 195 3.22 188 3.22
 185  0.166  0.166  0.943-   5 3.17 174 3.18 175 3.18 172 3.18 192 3.20 187 3.20 189 3.21 190 3.21
                           184 3.21 186 3.21   1 3.22   2 3.22
 186  0.333  0.000  0.944-   8 3.19   6 3.19 176 3.19 175 3.20 177 3.20 190 3.20 188 3.20 187 3.21
                           185 3.21   2 3.21 191 3.22 193 3.22
 187  0.000  0.834  0.943-   3 3.17 183 3.18 177 3.18 172 3.18 192 3.20 185 3.20 188 3.21 195 3.21
                           194 3.21 186 3.21   2 3.22  12 3.22
 188  0.167  0.668  0.943-   3 3.18 177 3.18   4 3.18 178 3.18 173 3.18 186 3.20   8 3.21 187 3.21
                           193 3.21 189 3.21 184 3.22 195 3.22
 189  0.332  0.499  0.943-   5 3.18 174 3.18   9 3.18 178 3.18 179 3.18 184 3.20   4 3.21 185 3.21
                           193 3.21 188 3.21 194 3.22 190 3.22
 190  0.499  0.332  0.943-   5 3.18 175 3.18  10 3.18 180 3.18 179 3.18 186 3.20   6 3.21 185 3.21
                           191 3.21 195 3.21 194 3.22 189 3.22
 191  0.668  0.167  0.943-   7 3.18 181 3.18   6 3.18 180 3.18 176 3.18 184 3.20  11 3.21 192 3.21
                           190 3.21 195 3.21 186 3.22 193 3.22
 192  0.834  0.000  0.943-   7 3.17 182 3.18 181 3.18 172 3.18 185 3.20 187 3.20 193 3.21 191 3.21
                           184 3.21 194 3.21  12 3.22   1 3.22
 193  0.501  0.833  0.943-   7 3.18 182 3.18   8 3.18 178 3.18 176 3.18 194 3.20   9 3.21 192 3.21
                           189 3.21 188 3.21 186 3.22 191 3.22
 194  0.667  0.667  0.944-   9 3.19  10 3.19 179 3.19 182 3.20 183 3.20 193 3.20 195 3.20 192 3.21
                           187 3.21  12 3.21 189 3.22 190 3.22
 195  0.833  0.501  0.943-   3 3.18 183 3.18  11 3.18 180 3.18 173 3.18 194 3.20  10 3.21 187 3.21
                           191 3.21 190 3.21 184 3.22 188 3.22
 196  0.000  0.230  0.099-  14 2.74  21 2.74  29 2.78  24 2.78 208 3.02 207 3.02 205 3.03 209 3.05

 197  0.230  0.000  0.099-  15 2.74  17 2.74  26 2.78  25 2.78 207 3.02 206 3.02 205 3.03 210 3.05

 198  0.770  0.770  0.099-  23 2.74  22 2.74  28 2.78  27 2.78 206 3.02 208 3.02 205 3.03 211 3.05

 199  0.232  0.232  0.179-  37 2.75  38 2.75  31 2.76  32 2.76 212 3.00 207 3.02 209 3.03 210 3.03

 200  0.000  0.768  0.179-  46 2.75  40 2.75  30 2.76  35 2.76 212 3.00 206 3.02 210 3.03 211 3.03

 201  0.768  0.000  0.179-  45 2.75  44 2.75  34 2.76  33 2.76 212 3.00 208 3.02 211 3.03 209 3.03

 202  0.218  0.218  0.388-  71 2.80  72 2.80  76 2.90 214 3.03 215 3.03  60 3.05  61 3.05 213 3.07
                            78 3.11  79 3.11
 203  0.000  0.782  0.388-  70 2.80  75 2.80  76 2.90 215 3.03 216 3.03  69 3.05  63 3.05 213 3.07
                            87 3.11  81 3.11
 204  0.782  0.000  0.388-  74 2.80  73 2.80  76 2.90 216 3.03 214 3.03  68 3.05  67 3.05 213 3.07
                            86 3.11  85 3.11
 205  0.000  0.000  0.065- 197 3.03 198 3.03 196 3.03  14 3.34  23 3.34  22 3.34  15 3.34  17 3.34
                            21 3.34   2 3.56  12 3.56   1 3.56 206 3.96 207 3.96 208 3.96
 206  0.000  0.714  0.115- 197 3.02 198 3.02 200 3.02  30 3.33  35 3.33  17 3.34  23 3.34  26 3.40
                            28 3.40  24 3.55  29 3.55  13 3.64 210 3.90 211 3.90 205 3.96
 207  0.286  0.286  0.115- 197 3.02 196 3.02 199 3.02  32 3.33  31 3.33  15 3.34  14 3.34  25 3.40
                            24 3.40  28 3.55  27 3.55  19 3.64 210 3.90 209 3.90 205 3.96
 208  0.714  0.000  0.115- 198 3.02 196 3.02 201 3.02  34 3.33  33 3.33  21 3.34  22 3.34  29 3.40
                            27 3.40  25 3.55  26 3.55  16 3.64 211 3.90 209 3.90 205 3.96
 209  0.000  0.287  0.163- 199 3.03 201 3.03 196 3.05  29 3.33  24 3.33  44 3.35  37 3.35  31 3.39
                            33 3.39  35 3.54  30 3.54  36 3.62 208 3.90 207 3.90 212 3.91
 210  0.287  0.000  0.163- 200 3.03 199 3.03 197 3.05  26 3.33  25 3.33  38 3.35  40 3.35  30 3.39
                            32 3.39  33 3.54  34 3.54  39 3.62 207 3.90 206 3.90 212 3.91
 211  0.713  0.713  0.163- 201 3.03 200 3.03 198 3.05  27 3.33  28 3.33  45 3.35  46 3.35  34 3.39
                            35 3.39  31 3.54  32 3.54  42 3.62 208 3.90 206 3.90 212 3.91
 212  0.000  0.000  0.211- 201 3.00 199 3.00 200 3.00  37 3.33  46 3.33  45 3.33  38 3.33  40 3.33
                            44 3.33  55 3.65  48 3.65  50 3.65 209 3.91 211 3.91 210 3.91
 213  0.000  0.000  0.348- 204 3.07 202 3.07 203 3.07  60 3.32  69 3.32  68 3.32  61 3.32  63 3.32
                            67 3.32  76 3.48  55 3.68  48 3.68  50 3.68 214 3.91 216 3.91 215 3.91
 214  0.000  0.305  0.389- 202 3.03 204 3.03  85 3.17  78 3.17  67 3.18  60 3.18  59 3.31  71 3.34
                            73 3.34  77 3.34  75 3.37  70 3.37  76 3.73 213 3.91
 215  0.305  0.000  0.389- 203 3.03 202 3.03  79 3.17  81 3.17  61 3.18  63 3.18  62 3.31  70 3.34
                            72 3.34  80 3.34  73 3.37  74 3.37  76 3.73 213 3.91
 216  0.695  0.695  0.389- 204 3.03 203 3.03  86 3.17  87 3.17  68 3.18  69 3.18  65 3.31  74 3.34
                            75 3.34  83 3.34  71 3.37  72 3.37  76 3.73 213 3.91
 
  LATTYP: Found a hexagonal cell.
 ALAT       =    11.1273015836
 C/A-ratio  =     4.1974712425
  
  Lattice vectors:
  
 A1 = (  11.1273015836,  -0.0000000000,   0.0000000000)
 A2 = (  -5.5636507919,   9.6365258470,   0.0000000000)
 A3 = (   0.0000000000,  -0.0000000000,  46.7065284041)
 Subroutine PRICEL returns:
 Original cell was already a primitive cell.
 

Analysis of symmetry for initial positions (statically):

 Routine SETGRP: Setting up the symmetry group for a 
 hexagonal supercell.


 Subroutine GETGRP returns: Found  6 space group operations
 (whereof  6 operations were pure point group operations)
 out of a pool of 24 trial point group operations.


The static configuration has the point symmetry C_3v.

Analysis of symmetry for dynamics (positions and initial velocities):

 Subroutine DYNSYM returns: Found  6 space group operations
 (whereof  6 operations were pure point group operations)
 out of a pool of  6 trial space group operations
 (whereof  6 operations were pure point group operations)
 and found also     1 'primitive' translations


The dynamic configuration has the point symmetry C_3v.
 
 
 KPOINTS: Automatic mesh                          

Automatic generation of k-mesh.
 generate k-points for:   5   5   1
 
 Subroutine IBZKPT returns following result:
 ===========================================
 
 Found      5 irreducible k-points:
 
 Following reciprocal coordinates:
            Coordinates               Weight
  0.000000  0.000000  0.000000      1.000000
  0.200000 -0.000000 -0.000000      6.000000
  0.400000 -0.000000 -0.000000      6.000000
  0.200000  0.200000 -0.000000      6.000000
  0.400000  0.200000 -0.000000      6.000000
 
 Following cartesian coordinates:
            Coordinates               Weight
  0.000000  0.000000  0.000000      1.000000
  0.017974  0.010377  0.000000      6.000000
  0.035948  0.020754  0.000000      6.000000
  0.017974  0.031132  0.000000      6.000000
  0.035948  0.041509  0.000000      6.000000
 


--------------------------------------------------------------------------------------------------------




 Dimension of arrays:
   k-Points           NKPTS =      5   number of bands    NBANDS=    424
   number of dos      NEDOS =    301   number of ions     NIONS =    216
   non local maximal  LDIM  =      6   non local SUM 2l+1 LMDIM =     18
   total plane-waves  NPLWV = ******
   max r-space proj   IRMAX =   7020   max aug-charges    IRDMAX= 105292
   dimension x,y,z NGX =    64 NGY =   64 NGZ =  270
   dimension x,y,z NGXF=   128 NGYF=  128 NGZF=  540
   support grid    NGXF=   256 NGYF=  256 NGZF= 1080
   ions per type =             195   9  12
 NGX,Y,Z   is equivalent  to a cutoff of   9.56,  9.56,  9.61 a.u.
 NGXF,Y,Z  is equivalent  to a cutoff of  19.12, 19.12, 19.22 a.u.


 I would recommend the setting:
   dimension x,y,z NGX =    63 NGY =   63 NGZ =  264
 SYSTEM =  Gd unit fixed hcp k-0.5 cut-300 yosuke  
 POSCAR =  New structure                           

 Startparameter for this run:
   NWRITE =      2    write-flag & timer
   PREC   = accura    medium, high low
   ISTART =      0    job   : 0-new  1-cont  2-samecut
   ICHARG =      2    charge: 1-file 2-atom 10-const
   ISPIN  =      1    spin polarized calculation?
   LNONCOLLINEAR =      F non collinear calculations
   LSORBIT =      F    spin-orbit coupling
   INIWAV =      1    electr: 0-lowe 1-rand  2-diag
   LASPH  =      F    aspherical Exc in radial PAW
   METAGGA=      F    non-selfconsistent MetaGGA calc.

 Electronic Relaxation 1
   ENCUT  =  300.0 eV  22.05 Ry    4.70 a.u.  15.71 15.71 65.96*2*pi/ulx,y,z
   ENINI  =  300.0     initial cutoff
   ENAUG  =  575.9 eV  augmentation charge cutoff
   NELM   =     60;   NELMIN= 12; NELMDL=-12     # of ELM steps 
   EDIFF  = 0.1E-04   stopping-criterion for ELM
   LREAL  =      T    real-space projection
   LCOMPAT=      F    compatible to vasp.4.4
   LREAL_COMPAT= F    compatible to vasp.4.5.1-3
   GGA_COMPAT  = T    GGA compatible to vasp.4.4-vasp.4.6
   LMAXPAW     = -100 max onsite density
   LMAXMIX     =    2 max onsite mixed and CHGCAR
   VOSKOWN=      1    Vosko Wilk Nusair interpolation
   ROPT   =   -0.00025  -0.00025  -0.00025
 Ionic relaxation
   EDIFFG = -.2E-01   stopping-criterion for IOM
   NSW    =     60    number of steps for IOM
   NBLOCK =      1;   KBLOCK =     60    inner block; outer block 
   IBRION =      2    ionic relax: 0-MD 1-quasi-New 2-CG
   NFREE  =      1    steps in history (QN), initial steepest desc. (CG)
   ISIF   =      3    stress and relaxation
   IWAVPR =     11    prediction:  0-non 1-charg 2-wave 3-comb
   ISYM   =      2    0-nonsym 1-usesym 2-fastsym
   LCORR  =      T    Harris-Foulkes like correction to forces

   POTIM  =   0.50    time-step for ionic-motion
   TEIN   =    0.0    initial temperature
   TEBEG  =    0.0;   TEEND  =   0.0 temperature during run
   SMASS  =  -3.00    Nose mass-parameter (am)
   estimated Nose-frequenzy (Omega)   =  0.10E-29 period in steps =****** mass=  -0.283E-26a.u.
   NPACO  =    256;   APACO  = 16.0  distance and # of slots for P.C.
   PSTRESS=    0.0 pullay stress

  Mass of Ions in am
   POMASS =  24.30 65.39 88.91
  Ionic Valenz
   ZVAL   =   2.00 12.00 11.00
  Atomic Wigner-Seitz radii
   RWIGS  =  -1.00 -1.00 -1.00
   NELECT =     630.0000    total number of electrons
   NUPDOWN=      -1.0000    fix difference up-down

 DOS related values:
   EMIN   =  10.00;   EMAX   =-10.00  energy-range for DOS
   ISMEAR =     1;   SIGMA  =   0.20  broadening in eV -4-tet -1-fermi 0-gaus

 Electronic relaxation 2 (details)
   IALGO  =     48    algorithm
   LDIAG  =      T    sub-space diagonalisation
   IMIX   =      4    mixing-type and parameters
     AMIX     =   0.40;   BMIX     =  1.00
     AMIX_MAG =   1.60;   BMIX_MAG =  1.00
     AMIN     =   0.10
     WC   =   100.;   INIMIX=   1;  MIXPRE=   1

 Intra band minimization:
   WEIMIN = 0.0010     energy-eigenvalue tresh-hold
   EBREAK =  0.59E-08  absolut break condition
   DEPER  =   0.30     relativ break condition  

   TIME   =   0.10     timestep for ELM

  volume/ion in A,a.u.               =      23.19       156.47
  Fermi-wavevector in a.u.,eV,Ry     =   0.820274  9.154676  0.672850

 Second variation
   LSECVAR=     F    do a second variation
 
 Write flags
   LWAVE  =      F    write WAVECAR
   LCHARG =      T    write CHGCAR
   LVTOT  =      F    write LOCPOT, local potential
   LELF   =      F    write electronic localiz. function (ELF)
   LORBIT =      0    0 simple, 1 ext, 2 COOP (PROOUT)


 Dipole corrections
   IDIPOL =      0    1-x, 2-y, 3-z
   LDIPOL =      F    correct potential



--------------------------------------------------------------------------------------------------------


 conjugate gradient relaxation of ions
 charge density will be updated during run
 non-spin polarized calculation
 RMM-DIIS sequential band-by-band
 performe sub-space diagonalisation
    before iterative eigenvector-optimisation
 modified Broyden-mixing scheme, WC =      100.0
 initial mixing is a Kerker type mixing with AMIX =  0.4000 and BMIX =      1.0000
 Hartree-type preconditioning will be used
 using additional bands          109
 real space projection scheme for non local part
 use partial core corrections
 calculate Harris-corrections to forces 
   (improved forces if not selfconsistent)
 use gradient corrections 
 use of overlap-Matrix (Vanderbilt PP)
 Methfessel and Paxton  Order N= 1 SIGMA  =   0.20


--------------------------------------------------------------------------------------------------------


  energy-cutoff  :      300.00
  volume of cell :     5008.27
      direct lattice vectors                 reciprocal lattice vectors
    11.127301584 -0.000000000  0.000000000     0.089869048  0.051885919  0.000000000
    -5.563650792  9.636525847  0.000000000     0.000000000  0.103771838  0.000000000
     0.000000000 -0.000000000 46.706528404     0.000000000  0.000000000  0.021410283

  length of vectors
    11.127301584 11.127301584 46.706528404     0.103771838  0.103771838  0.021410283


 
 k-points in units of 2pi/SCALE and weight: Automatic mesh                          
   0.00000000  0.00000000  0.00000000       0.040
   0.01797381  0.01037718  0.00000000       0.240
   0.03594762  0.02075437  0.00000000       0.240
   0.01797381  0.03113155  0.00000000       0.240
   0.03594762  0.04150874  0.00000000       0.240
 
 k-points in reciprocal lattice and weights: Automatic mesh                          
   0.00000000  0.00000000  0.00000000       0.040
   0.20000000 -0.00000000 -0.00000000       0.240
   0.40000000 -0.00000000 -0.00000000       0.240
   0.20000000  0.20000000 -0.00000000       0.240
   0.40000000  0.20000000 -0.00000000       0.240
 
 position of ions in fractional coordinates (direct lattice) 
   0.00000000  0.16480848  0.99944376
   0.16480815  0.00000000  0.99944376
   0.00000000  0.66868506  0.99831075
   0.16494266  0.50226428  0.99897961
   0.33131527  0.33131491  0.99831075
   0.50226428  0.16494299  0.99897961
   0.66868476  0.00000000  0.99831075
   0.33732127  0.83505732  0.99897961
   0.49773572  0.66267870  0.99897961
   0.66267840  0.49773572  0.99897961
   0.83505732  0.33732127  0.99897961
   0.83519184  0.83519184  0.99944376
   0.00000000  0.50260222  0.05556412
   0.17284636  0.34149053  0.05299181
   0.34149089  0.17284636  0.05299181
   0.50260222  0.00000000  0.05556412
   0.16864453  0.82715332  0.05299181
   0.33333334  0.66666698  0.05490779
   0.49739778  0.49739778  0.05556412
   0.66666669  0.33333299  0.05490779
   0.82715362  0.16864485  0.05299181
   0.65850914  0.83135516  0.05299181
   0.83135546  0.65850944  0.05299181
   0.16568823  0.51204796  0.11046652
   0.51204796  0.16568856  0.11046652
   0.34635939  0.83431175  0.11046652
   0.48795204  0.65364058  0.11046652
   0.65364028  0.48795204  0.11046652
   0.83431175  0.34635939  0.11046652
   0.16599125  0.65359121  0.16751773
   0.34640911  0.51240035  0.16751773
   0.51240035  0.34640876  0.16751773
   0.65359092  0.16599158  0.16751773
   0.48759965  0.83400843  0.16751773
   0.83400873  0.48759965  0.16751773
   0.00000000  0.49740621  0.22245648
   0.16897414  0.33924225  0.22542474
   0.33924261  0.16897414  0.22542474
   0.49740621  0.00000000  0.22245648
   0.17026846  0.83102554  0.22542474
   0.33333334  0.66666698  0.22296440
   0.50259379  0.50259379  0.22245648
   0.66666669  0.33333299  0.22296440
   0.83102584  0.17026879  0.22542474
   0.66075742  0.82973122  0.22542474
   0.82973152  0.66075772  0.22542474
   0.00000000  0.32860130  0.27909895
   0.16130534  0.16130567  0.27925979
   0.32860165  0.00000000  0.27909895
   0.00000000  0.83869435  0.27925979
   0.16417311  0.66027938  0.27890453
   0.33972095  0.50389405  0.27890453
   0.50389405  0.33972059  0.27890453
   0.66027908  0.16417344  0.27890453
   0.83869465  0.00000000  0.27925979
   0.49610595  0.83582657  0.27890453
   0.67139838  0.67139868  0.27909895
   0.83582687  0.49610595  0.27890453
   0.00000000  0.49198938  0.33413358
   0.17472472  0.33663361  0.33313869
   0.33663396  0.17472472  0.33313869
   0.49198938  0.00000000  0.33413358
   0.16190924  0.82527496  0.33313869
   0.33333334  0.66666698  0.33516439
   0.50801062  0.50801062  0.33413358
   0.66666669  0.33333299  0.33516439
   0.82527526  0.16190957  0.33313869
   0.66336607  0.83809045  0.33313869
   0.83809075  0.66336637  0.33313869
   0.16267440  0.65504898  0.39017989
   0.34495134  0.50762573  0.39017989
   0.50762573  0.34495099  0.39017989
   0.65504869  0.16267473  0.39017989
   0.49237427  0.83732529  0.39017989
   0.83732559  0.49237427  0.39017989
   0.00000000  0.00000000  0.42245912
   0.00000000  0.49080254  0.44555498
   0.16951372  0.33019440  0.44572178
   0.33019476  0.16951372  0.44572178
   0.49080254  0.00000000  0.44555498
   0.16068104  0.83048597  0.44572178
   0.33333334  0.66666698  0.44461816
   0.50919746  0.50919746  0.44555498
   0.66666669  0.33333299  0.44461816
   0.83048627  0.16068136  0.44572178
   0.66980527  0.83931865  0.44572178
   0.83931895  0.66980557  0.44572178
   0.00000000  0.33184145  0.50136631
   0.16357135  0.16357167  0.50030252
   0.33184181  0.00000000  0.50136631
   0.00000000  0.83642834  0.50030252
   0.16614809  0.66642827  0.50028600
   0.33357206  0.49972013  0.50028600
   0.49972013  0.33357170  0.50028600
   0.66642797  0.16614842  0.50028600
   0.83642864  0.00000000  0.50030252
   0.50027987  0.83385160  0.50028600
   0.66815822  0.66815852  0.50136631
   0.83385190  0.50027987  0.50028600
   0.00000000  0.00000000  0.55602938
   0.00000000  0.50018833  0.55591143
   0.16716205  0.33304037  0.55607018
   0.33304072  0.16716205  0.55607018
   0.50018833  0.00000000  0.55591143
   0.16587868  0.83283764  0.55607018
   0.33333334  0.66666698  0.55582492
   0.49981167  0.49981167  0.55591143
   0.66666669  0.33333299  0.55582492
   0.83283794  0.16587900  0.55607018
   0.66695931  0.83412101  0.55607018
   0.83412131  0.66695960  0.55607018
   0.00000000  0.33309192  0.61160681
   0.16667060  0.16667092  0.61142241
   0.33309227  0.00000000  0.61160681
   0.00000000  0.83332909  0.61142241
   0.16672671  0.66653326  0.61133321
   0.33346707  0.50019376  0.61133321
   0.50019376  0.33346671  0.61133321
   0.66653296  0.16672703  0.61133321
   0.83332939  0.00000000  0.61142241
   0.49980624  0.83327298  0.61133321
   0.66690776  0.66690805  0.61160681
   0.83327328  0.49980624  0.61133321
   0.00000000  0.00000000  0.66682406
   0.00000000  0.49978749  0.66671598
   0.16660648  0.33328872  0.66677682
   0.33328908  0.16660648  0.66677682
   0.49978749  0.00000000  0.66671598
   0.16668259  0.83339320  0.66677682
   0.33333334  0.66666698  0.66668317
   0.50021251  0.50021251  0.66671598
   0.66666669  0.33333299  0.66668317
   0.83339350  0.16668292  0.66677682
   0.66671095  0.83331709  0.66677682
   0.83331739  0.66671125  0.66677682
   0.00000000  0.33339465  0.72213461
   0.16684614  0.16684647  0.72206713
   0.33339501  0.00000000  0.72213461
   0.00000000  0.83315354  0.72206713
   0.16673356  0.66648048  0.72206805
   0.33351984  0.50025339  0.72206805
   0.50025339  0.33351949  0.72206805
   0.66648019  0.16673388  0.72206805
   0.83315384  0.00000000  0.72206713
   0.49974661  0.83326613  0.72206805
   0.66660502  0.66660532  0.72213461
   0.83326643  0.49974661  0.72206805
   0.00000000  0.00000000  0.77732457
   0.00000000  0.49987420  0.77738887
   0.16673514  0.33366223  0.77735611
   0.33366259  0.16673514  0.77735611
   0.49987420  0.00000000  0.77738887
   0.16692745  0.83326455  0.77735611
   0.33333334  0.66666698  0.77742381
   0.50012580  0.50012580  0.77738887
   0.66666669  0.33333299  0.77742381
   0.83326485  0.16692778  0.77735611
   0.66633744  0.83307223  0.77735611
   0.83307253  0.66633774  0.77735611
   0.00000000  0.33351014  0.83266757
   0.16680732  0.16680765  0.83251381
   0.33351050  0.00000000  0.83266757
   0.00000000  0.83319236  0.83251381
   0.16667504  0.66657066  0.83272136
   0.33342967  0.50010470  0.83272136
   0.50010470  0.33342931  0.83272136
   0.66657036  0.16667537  0.83272136
   0.83319266  0.00000000  0.83251381
   0.49989530  0.83332464  0.83272136
   0.66648953  0.66648983  0.83266757
   0.83332494  0.49989530  0.83272136
   0.00000000  0.00000000  0.88746342
   0.00000000  0.50014386  0.88798017
   0.16665461  0.33357315  0.88779732
   0.33357351  0.16665461  0.88779732
   0.50014386  0.00000000  0.88798017
   0.16691890  0.83334508  0.88779732
   0.33333334  0.66666698  0.88790655
   0.49985614  0.49985614  0.88798017
   0.66666669  0.33333299  0.88790655
   0.83334538  0.16691922  0.88779732
   0.66642652  0.83308079  0.88779732
   0.83308109  0.66642682  0.88779732
   0.00000000  0.33344099  0.94355915
   0.16598211  0.16598244  0.94294269
   0.33344135  0.00000000  0.94355915
   0.00000000  0.83401757  0.94294269
   0.16719050  0.66780146  0.94325702
   0.33219886  0.49938934  0.94325702
   0.49938934  0.33219851  0.94325702
   0.66780117  0.16719082  0.94325702
   0.83401787  0.00000000  0.94294269
   0.50061066  0.83280919  0.94325702
   0.66655868  0.66655898  0.94355915
   0.83280949  0.50061066  0.94325702
   0.00000000  0.23043371  0.09933319
   0.23043338  0.00000000  0.09933319
   0.76956660  0.76956660  0.09933319
   0.23231698  0.23231730  0.17851796
   0.00000000  0.76768271  0.17851796
   0.76768301  0.00000000  0.17851796
   0.21796420  0.21796453  0.38841026
   0.00000000  0.78203549  0.38841026
   0.78203578  0.00000000  0.38841026
   0.00000000  0.00000000  0.06483634
   0.00000000  0.71382633  0.11513705
   0.28617400  0.28617364  0.11513705
   0.71382603  0.00000000  0.11513705
   0.00000000  0.28743977  0.16318518
   0.28744012  0.00000000  0.16318518
   0.71255991  0.71256021  0.16318518
   0.00000000  0.00000000  0.21131327
   0.00000000  0.00000000  0.34799579
   0.00000000  0.30541207  0.38928778
   0.30541243  0.00000000  0.38928778
   0.69458760  0.69458790  0.38928778
 
 position of ions in cartesian coordinates  (Angst):
  -0.91693680  1.58818113 46.68054831
   1.83386997 -0.00000000 46.68054831
  -3.72033016  6.44380086 46.62762934
  -0.95905628  4.84008269 46.65886954
   1.84332444  3.19272471 46.62762934
   4.67116089  1.58947739 46.65886954
   7.44065701 -0.00000000 46.62762934
  -0.89249180  8.04705146 46.65886954
   1.85154262  6.38592041 46.65886954
   4.60459468  4.79644315 46.65886954
   7.41519689  3.25060515 46.65886954
   4.64671572  8.04834772 46.68054831
  -2.79630322  4.84333926  2.59520697
   0.02337956  3.29078234  2.47506326
   2.83821530  1.66563846  2.47506326
   5.59260645 -0.00000000  2.59520697
  -2.72543374  7.97088437  2.47506326
  -0.00000166  6.42435363  2.56455227
   2.76734757  4.79318659  2.59520697
   5.56365295  3.21217194  2.56455227
   8.26570672  1.62515048  2.47506326
   2.70206000  8.01137551  2.47506326
   5.58702636  6.34574323  2.47506326
  -1.00519314  4.93436342  5.15950747
   4.77587883  1.59666207  5.15950747
  -0.78777387  8.03986678  5.15950747
   1.79296154  6.29882436  5.15950747
   4.55845782  4.70216242  5.15950747
   7.35661581  3.33770121  5.15950747
  -1.78931855  6.29834862  7.82417169
   1.00378207  4.93775923  7.82417169
   3.77433589  3.33817695  7.82417169
   6.34918405  1.59958214  7.82417169
   0.78553665  8.03694384  7.82417169
   6.56743253  4.69876661  7.82417169
  -2.76739445  4.79326779 10.39016974
  -0.00719915  3.26911672 10.52880699
   2.83474167  1.62832371 10.52880699
   5.53478890 -0.00000000 10.39016974
  -2.72890737  8.00819912 10.52880699
  -0.00000166  6.42435363 10.41389312
   2.79625634  4.84325805 10.39016974
   5.56365295  3.21217194 10.41389312
   8.29975905  1.64079961 10.52880699
   2.73611233  7.99572638 10.52880699
   5.55644765  6.36740885 10.52880699
  -1.82822286  3.16657488 13.03574297
   0.89744475  1.55442621 13.04325538
   3.65644969 -0.00000000 13.03574297
  -4.66620248  8.08209977 13.04325538
  -1.84676013  6.36279928 13.02666239
   0.97668695  4.85578804 13.02666239
   3.71689431  3.27372629 13.02666239
   6.43372074  1.58206160 13.02666239
   9.33240827 -0.00000000 13.04325538
   0.87007334  8.05446438 13.02666239
   3.73542446  6.46995069 13.03574297
   6.54033741  4.78073781 13.02666239
  -2.73725709  4.74106835 15.60621939
   0.07130288  3.24397844 15.55975159
   2.77372028  1.68373932 15.55975159
   5.47451417 -0.00000000 15.60621939
  -2.78992876  7.95278351 15.55975159
  -0.00000166  6.42435363 15.65436507
   2.82639370  4.89545750 15.60621939
   5.56365295  3.21217194 15.65436507
   8.28227843  1.56024572 15.55975159
   2.71863171  8.07628026 15.55975159
   5.63494968  6.39254712 15.55975159
  -1.83433672  6.31239647 18.22394816
   1.01412535  4.89174843 18.22394816
   3.72931772  3.32412910 18.22394816
   6.38385893  1.56761919 18.22394816
   0.82021153  8.06890679 18.22394816
   6.57777581  4.74477741 18.22394816
   0.00000000 -0.00000000 19.73159875
  -2.73065392  4.72963133 20.81032618
   0.04914394  3.18192686 20.81811716
   2.73106149  1.63352333 20.81811716
   5.46130784 -0.00000000 20.81032618
  -2.83258755  8.00299950 20.81811716
  -0.00000166  6.42435363 20.76657087
   2.83299687  4.90689452 20.81032618
   5.56365295  3.21217194 20.76657087
   8.34709614  1.54841013 20.81811716
   2.78344942  8.08811586 20.81811716
   5.61279075  6.45459871 20.81811716
  -1.84624994  3.19779870 23.41707967
   0.91005203  1.57626265 23.36739409
   3.69250385 -0.00000000 23.41707967
  -4.65359521  8.06026333 23.36739409
  -1.85899428  6.42205327 23.36662233
   0.93148856  4.81556595 23.36662233
   3.70466015  3.21447229 23.36662233
   6.49115329  1.60109351 23.36662233
   9.30719373 -0.00000000 23.36739409
   0.92750589  8.03543247 23.36662233
   3.71739737  6.43872687 23.41707967
   6.49513902  4.82095989 23.36662233
   0.00000000 -0.00000000 25.97020219
  -2.78287317  4.82007773 25.96469283
   0.00714221  3.20935210 25.97210785
   2.77581332  1.61086139 25.97210785
   5.56574635 -0.00000000 25.96469283
  -2.78783572  8.02566144 25.97210785
  -0.00000166  6.42435363 25.96065256
   2.78077762  4.81644812 25.96469283
   5.56365295  3.21217194 25.96065256
   8.34434605  1.59849731 25.97210785
   2.78069933  8.03802867 25.97210785
   5.57078902  6.42717346 25.97210785
  -1.85320711  3.20984887 28.56603072
   0.92729518  1.60612867 28.55741827
   3.70641820 -0.00000000 28.56603072
  -4.63635205  8.03039731 28.55741827
  -1.85313995  6.42306496 28.55325215
   0.92768525  4.82013011 28.55325215
   3.71051449  3.21346061 28.55325215
   6.48910226  1.60666936 28.55325215
   9.27270741 -0.00000000 28.55741827
   0.92545486  8.02985662 28.55325215
   3.71044020  6.42667669 28.56603072
   6.49133571  4.81639573 28.55325215
   0.00000000 -0.00000000 31.14503688
  -2.78064304  4.81621503 31.13998886
  -0.00042146  3.21174536 31.14283043
   2.78166778  1.60550769 31.14283043
   5.56128609 -0.00000000 31.13998886
  -2.78198126  8.03101514 31.14283043
  -0.00000166  6.42435363 31.13845642
   2.78300775  4.82031082 31.13998886
   5.56365295  3.21217194 31.13845642
   8.34605526  1.60624428 31.14283043
   2.78240854  8.03028170 31.14283043
   5.56322534  6.42478020 31.14283043
  -1.85489143  3.21276620 33.72840076
   0.92827185  1.60782031 33.72524887
   3.70978683 -0.00000000 33.72840076
  -4.63537538  8.02870567 33.72524887
  -1.85277010  6.42255640 33.72529188
   0.92794075  4.82070469 33.72529188
   3.71088434  3.21396917 33.72529188
   6.48847692  1.60673538 33.72529188
   9.27075407 -0.00000000 33.72524887
   0.92482952  8.02979060 33.72529188
   3.70875589  6.42375937 33.72840076
   6.49159121  4.81582116 33.72529188
   0.00000000 -0.00000000 36.30613215
  -2.78112548  4.81705063 36.30913538
  -0.00106799  3.21534473 36.30760543
   2.78510819  1.60674746 36.30760543
   5.56225096 -0.00000000 36.30913538
  -2.77854085  8.02977537 36.30760543
  -0.00000166  6.42435363 36.31076710
   2.78252531  4.81947522 36.30913538
   5.56365295  3.21217194 36.31076710
   8.34326138  1.60860388 36.30760543
   2.77961466  8.02792211 36.30760543
   5.56257881  6.42118083 36.30760543
  -1.85553398  3.21387913 38.89101154
   0.92805587  1.60744622 38.88382983
   3.71107194 -0.00000000 38.89101154
  -4.63559136  8.02907976 38.88382983
  -1.85392289  6.42342537 38.89352398
   0.92776460  4.81927186 38.89352398
   3.70973155  3.21310020 38.89352398
   6.48980586  1.60617152 38.89352398
   9.27118604 -0.00000000 38.88382983
   0.92615846  8.03035447 38.89352398
   3.70811333  6.42264644 38.89101154
   6.49141505  4.81725399 38.89352398
   0.00000000 -0.00000000 41.45033549
  -2.78262579  4.81964924 41.47447098
  -0.00146841  3.21448627 41.46593088
   2.78456495  1.60597146 41.46593088
   5.56525157 -0.00000000 41.47447098
  -2.77908409  8.03055138 41.46593088
  -0.00000166  6.42435363 41.47103263
   2.78102501  4.81687661 41.47447098
   5.56365295  3.21217194 41.47103263
   8.34420504  1.60852142 41.46593088
   2.78055832  8.02800456 41.46593088
   5.56217839  6.42203929 41.46593088
  -1.85514924  3.21321274 44.07037234
   0.92346470  1.59949409 44.04157950
   3.71030245 -0.00000000 44.07037234
  -4.64018253  8.03703189 44.04157950
  -1.85503508  6.43528606 44.05626102
   0.91804903  4.81237833 44.05626102
   3.70861936  3.20123951 44.05626102
   6.50063361  1.61113868 44.05626102
   9.28036837 -0.00000000 44.04157950
   0.93698622  8.02538730 44.05626102
   3.70849807  6.42331283 44.07037234
   6.48169949  4.82414752 44.05626102
  -1.28205269  2.22058040  4.63950832
   2.56410174 -0.00000000  4.63950832
   4.28159984  7.41594845  4.63950832
   1.29252871  2.23873170  8.33795410
  -4.27111852  7.39779428  8.33795410
   8.54224035 -0.00000000  8.33795410
   1.21267488  2.10042080 18.14129499
  -4.35097235  7.53610518 18.14129499
   8.70194802 -0.00000000 18.14129499
   0.00000000 -0.00000000  3.02828029
  -3.97148043  6.87880588  5.37765199
   1.59217418  2.75771969  5.37765199
   7.94295754 -0.00000000  5.37765199
  -1.59921448  2.76992073  7.62181317
   3.19843293 -0.00000000  7.62181317
   3.96443284  6.86660484  7.62181317
   0.00000000 -0.00000000  9.86970935
   0.00000000 -0.00000000 16.25367542
  -1.69920610  2.94311130 18.18228079
   3.39841617 -0.00000000 18.18228079
   3.86444122  6.69341427 18.18228079
 


--------------------------------------------------------------------------------------------------------


 k-point  1 :  0.00000.00000.0000  plane waves:  59123
 k-point  2 :  0.2000-.0000-.0000  plane waves:  59095
 k-point  3 :  0.4000-.0000-.0000  plane waves:  59090
 k-point  4 :  0.20000.2000-.0000  plane waves:  59096
 k-point  5 :  0.40000.2000-.0000  plane waves:  59076

 maximum and minimum number of plane-waves per node :  59123 59076

 maximum number of plane-waves:  59123
 maximal index in each direction: 
   IXMAX= 15   IYMAX= 15   IZMAX= 65
   IXMIN=-16   IYMIN=-15   IZMIN=-65

 NGX is ok and might be reduce to  64
 NGY is ok and might be reduce to  62
 NGZ is ok and might be reduce to 262

 real space projection operators:
  total allocation   :  52680.39 KBytes
  max/ min on nodes  :  52680.39  52680.39


 parallel 3dFFT wavefunction:
    minimum data exchange during FFTs selected (reduces bandwidth)
 parallel 3dFFT charge:
    minimum data exchange during FFTs selected (reduces bandwidth)

 For storing wavefunctions 2004.54 MBYTES are necessary
 For predicting wavefunctions  867.87 MBYTES are necessary
Broyden mixing: mesh for mixing (old mesh)
   NGX = 31   NGY = 31   NGZ =131
  (NGX  =128   NGY  =128   NGZ  =540)
 gives a total of 125891 points
 initial charge density was supplied:
 charge density of overlapping atoms calculated
 number of electron  630.0000000 magnetization 
 keeping initial charge density in first step


--------------------------------------------------------------------------------------------------------


 Maximum index for non-local projection operator         6802
 Maximum index for augmentation-charges        12755 (set IRDMAX)


--------------------------------------------------------------------------------------------------------


 First call to EWALD:  gamma=   0.104
 Maximum number of real-space cells 4x 4x 1
 Maximum number of reciprocal cells 2x 2x 7

    FEWALD:  VPU time    0.10: CPU time    0.10


----------------------------------------- Iteration    1(   1)  ---------------------------------------


    POTLOK:  VPU time    0.98: CPU time    0.98
    SETDIJ:  VPU time    0.64: CPU time    0.64
    EDDIAG:  VPU time   18.53: CPU time   18.53
  RMM-DIIS:  VPU time   37.17: CPU time   37.16
    ORTHCH:  VPU time    2.52: CPU time    2.52
    DOS   :  VPU time    0.00: CPU time   -0.00
    ------------------------------------------
      LOOP:  VPU time   59.86: CPU time   59.84

 eigenvalue-minimisations  :  2120
 total energy-change (2. order) : 0.1376305E+04  (-0.1408582E+05)
 number of electron  630.0000000 magnetization 
 augmentation part   630.0000000 magnetization 

 Free energy of the ion-electron system (eV)
  ---------------------------------------------------
  alpha Z        PSCENC =       237.35383289
  Ewald energy   TEWEN  =     29769.94754748
  -1/2 Hartree   DENC   =    -61519.70822905
  -V(xc)+E(xc)   XCENC  =      -558.74164214
  PAW double counting   =     22319.79041002   -21504.98300819
  entropy T*S    EENTRO =         0.05441141
  eigenvalues    EBANDS =      -149.11765236
  atomic energy  EATOM  =     32781.70910180
  ---------------------------------------------------
  free energy    TOTEN  =      1376.30477187 eV

  energy without entropy =     1376.25036046  energy(sigma->0) =     1376.28663473


--------------------------------------------------------------------------------------------------------




----------------------------------------- Iteration    1(   2)  ---------------------------------------


    EDDIAG:  VPU time   17.59: CPU time   17.59
  RMM-DIIS:  VPU time   36.63: CPU time   36.62
    ORTHCH:  VPU time    2.50: CPU time    2.50
    DOS   :  VPU time    0.00: CPU time   -0.00
    ------------------------------------------
      LOOP:  VPU time   56.73: CPU time   56.72

 eigenvalue-minimisations  :  2120
 total energy-change (2. order) :-0.1702739E+04  (-0.3578242E+04)
 number of electron  630.0000000 magnetization 
 augmentation part   630.0000000 magnetization 

 Free energy of the ion-electron system (eV)
  ---------------------------------------------------
  alpha Z        PSCENC =       237.35383289
  Ewald energy   TEWEN  =     29769.94754748
  -1/2 Hartree   DENC   =    -61519.70822905
  -V(xc)+E(xc)   XCENC  =      -558.74164214
  PAW double counting   =     22319.79041002   -21504.98300819
  entropy T*S    EENTRO =        -0.05500751
  eigenvalues    EBANDS =     -1851.74731445
  atomic energy  EATOM  =     32781.70910180
  ---------------------------------------------------
  free energy    TOTEN  =      -326.43430914 eV

  energy without entropy =     -326.37930163  energy(sigma->0) =     -326.41597330


--------------------------------------------------------------------------------------------------------




----------------------------------------- Iteration    1(   3)  ---------------------------------------


    EDDIAG:  VPU time   18.31: CPU time   18.31
  RMM-DIIS:  VPU time   37.24: CPU time   37.24
    ORTHCH:  VPU time    2.53: CPU time    2.53
    DOS   :  VPU time    0.00: CPU time   -0.00
    ------------------------------------------
      LOOP:  VPU time   58.10: CPU time   58.09

 eigenvalue-minimisations  :  2120
 total energy-change (2. order) : 0.7248155E+02  (-0.7196962E+03)
 number of electron  630.0000000 magnetization 
 augmentation part   630.0000000 magnetization 

 Free energy of the ion-electron system (eV)
  ---------------------------------------------------
  alpha Z        PSCENC =       237.35383289
  Ewald energy   TEWEN  =     29769.94754748
  -1/2 Hartree   DENC   =    -61519.70822905
  -V(xc)+E(xc)   XCENC  =      -558.74164214
  PAW double counting   =     22319.79041002   -21504.98300819
  entropy T*S    EENTRO =         0.03202974
  eigenvalues    EBANDS =     -1779.35280524
  atomic energy  EATOM  =     32781.70910180
  ---------------------------------------------------
  free energy    TOTEN  =      -253.95276269 eV

  energy without entropy =     -253.98479242  energy(sigma->0) =     -253.96343926


--------------------------------------------------------------------------------------------------------




----------------------------------------- Iteration    1(   4)  ---------------------------------------


    EDDIAG:  VPU time   18.57: CPU time   18.56
  RMM-DIIS:  VPU time   37.20: CPU time   37.18
    ORTHCH:  VPU time    2.52: CPU time    2.52
    DOS   :  VPU time    0.00: CPU time   -0.00
    ------------------------------------------
      LOOP:  VPU time   58.30: CPU time   58.28

 eigenvalue-minimisations  :  2120
 total energy-change (2. order) :-0.6835522E+02  (-0.1260895E+03)
[...]
 -----------------------------------------------------------------------------------------------
   -.709E-03 -.396E-03 -.246E+01   0.142E-12 -.284E-12 0.796E-12   0.444E-15 -.222E-15 0.246E+01   -.821E-05 0.689E-05 -.569E-02
 
 
 POSITION                                       TOTAL-FORCE (eV/Angst)
 -----------------------------------------------------------------------------------
     -0.91694      1.58818     46.68055         0.000792     -0.001371      0.001781
      1.83387     -0.00000     46.68055        -0.001583      0.000000      0.001781
     -3.72033      6.44380     46.62763         0.003146     -0.005449      0.000857
     -0.95906      4.84008     46.65887         0.004139     -0.003741     -0.005277
      1.84332      3.19272     46.62763         0.003146      0.005449      0.000857
      4.67116      1.58948     46.65887        -0.005309      0.001714     -0.005277
      7.44066     -0.00000     46.62763        -0.006292      0.000000      0.000857
     -0.89249      8.04705     46.65887        -0.005309     -0.001714     -0.005277
      1.85154      6.38592     46.65887         0.001170      0.005455     -0.005277
      4.60459      4.79644     46.65887         0.004139      0.003741     -0.005277
      7.41520      3.25061     46.65887         0.001170     -0.005455     -0.005277
      4.64672      8.04835     46.68055         0.000792      0.001371      0.001781
     -2.79630      4.84334      2.59521         0.004312     -0.007468     -0.004984
      0.02338      3.29078      2.47506        -0.002121      0.001260      0.004419
      2.83822      1.66564      2.47506         0.002151     -0.001207      0.004419
      5.59261     -0.00000      2.59521        -0.008623      0.000000     -0.004984
     -2.72543      7.97088      2.47506         0.002151      0.001207      0.004419
     -0.00000      6.42435      2.56455        -0.000000      0.000000     -0.003863
      2.76735      4.79319      2.59521         0.004312      0.007468     -0.004984
      5.56365      3.21217      2.56455         0.000000      0.000000     -0.003863
      8.26571      1.62515      2.47506        -0.000031      0.002466      0.004419
      2.70206      8.01138      2.47506        -0.000031     -0.002466      0.004419
      5.58703      6.34574      2.47506        -0.002121     -0.001260      0.004419
     -1.00519      4.93436      5.15951        -0.006337      0.000983     -0.001913
      4.77588      1.59666      5.15951         0.004019     -0.004996     -0.001913
     -0.78777      8.03987      5.15951         0.004019      0.004996     -0.001913
      1.79296      6.29882      5.15951         0.002317     -0.005979     -0.001913
      4.55846      4.70216      5.15951        -0.006337     -0.000983     -0.001913
      7.35662      3.33770      5.15951         0.002317      0.005979     -0.001913
     -1.78932      6.29835      7.82417        -0.000638     -0.003229     -0.001488
      1.00378      4.93776      7.82417         0.003115      0.001062     -0.001488
      3.77434      3.33818      7.82417        -0.000638      0.003229     -0.001488
      6.34918      1.59958      7.82417        -0.002477     -0.002167     -0.001488
      0.78554      8.03694      7.82417        -0.002477      0.002167     -0.001488
      6.56743      4.69877      7.82417         0.003115     -0.001062     -0.001488
     -2.76739      4.79327     10.39017         0.000599     -0.001037     -0.003063
     -0.00720      3.26912     10.52881         0.005865      0.001414     -0.003605
      2.83474      1.62832     10.52881        -0.001708      0.005787     -0.003605
      5.53479     -0.00000     10.39017        -0.001198      0.000000     -0.003063
     -2.72891      8.00820     10.52881        -0.001708     -0.005787     -0.003605
     -0.00000      6.42435     10.41389        -0.000000     -0.000000      0.006644
      2.79626      4.84326     10.39017         0.000599      0.001037     -0.003063
      5.56365      3.21217     10.41389         0.000000     -0.000000      0.006644
      8.29976      1.64080     10.52881        -0.004157     -0.004372     -0.003605
      2.73611      7.99573     10.52881        -0.004157      0.004372     -0.003605
      5.55645      6.36741     10.52881         0.005865     -0.001414     -0.003605
     -1.82822      3.16657     13.03574        -0.002929      0.005072     -0.000623
      0.89744      1.55443     13.04326         0.001038      0.001798      0.001101
      3.65645     -0.00000     13.03574         0.005857     -0.000000     -0.000623
     -4.66620      8.08210     13.04326         0.001038     -0.001798      0.001101
     -1.84676      6.36280     13.02666        -0.004063      0.004210      0.003005
      0.97669      4.85579     13.02666        -0.001615     -0.005624      0.003005
      3.71689      3.27373     13.02666        -0.004063     -0.004210      0.003005
      6.43372      1.58206     13.02666         0.005678     -0.001413      0.003005
      9.33241     -0.00000     13.04326        -0.002076      0.000000      0.001101
      0.87007      8.05446     13.02666         0.005678      0.001413      0.003005
      3.73542      6.46995     13.03574        -0.002929     -0.005072     -0.000623
      6.54034      4.78074     13.02666        -0.001615      0.005624      0.003005
     -2.73726      4.74107     15.60622        -0.000492      0.000852     -0.003959
      0.07130      3.24398     15.55975         0.000533      0.004074      0.003043
      2.77372      1.68374     15.55975         0.003262      0.002499      0.003043
      5.47451     -0.00000     15.60622         0.000984     -0.000000     -0.003959
     -2.78993      7.95278     15.55975         0.003262     -0.002499      0.003043
     -0.00000      6.42435     15.65437         0.000000      0.000000     -0.003749
      2.82639      4.89546     15.60622        -0.000492     -0.000852     -0.003959
      5.56365      3.21217     15.65437        -0.000000      0.000000     -0.003749
      8.28228      1.56025     15.55975        -0.003795      0.001575      0.003043
      2.71863      8.07628     15.55975        -0.003795     -0.001575      0.003043
      5.63495      6.39255     15.55975         0.000533     -0.004074      0.003043
     -1.83434      6.31240     18.22395         0.008114     -0.001074      0.001314
      1.01413      4.89175     18.22395        -0.003127      0.007564      0.001314
      3.72932      3.32413     18.22395         0.008114      0.001074      0.001314
      6.38386      1.56762     18.22395        -0.004987      0.006490      0.001314
      0.82021      8.06891     18.22395        -0.004987     -0.006490      0.001314
      6.57778      4.74478     18.22395        -0.003127     -0.007564      0.001314
      0.00000     -0.00000     19.73160         0.000000     -0.000000      0.005669
     -2.73065      4.72963     20.81033        -0.001267      0.002195      0.004063
      0.04914      3.18193     20.81812         0.001900      0.001829      0.005804
      2.73106      1.63352     20.81812         0.000634      0.002560      0.005804
      5.46131     -0.00000     20.81033         0.002535     -0.000000      0.004063
     -2.83259      8.00300     20.81812         0.000634     -0.002560      0.005804
     -0.00000      6.42435     20.76657         0.000000     -0.000000      0.006970
      2.83300      4.90689     20.81033        -0.001267     -0.002195      0.004063
      5.56365      3.21217     20.76657        -0.000000     -0.000000      0.006970
      8.34710      1.54841     20.81812        -0.002534     -0.000731      0.005804
      2.78345      8.08812     20.81812        -0.002534      0.000731      0.005804
      5.61279      6.45460     20.81812         0.001900     -0.001829      0.005804
     -1.84625      3.19780     23.41708        -0.000588      0.001019     -0.004949
      0.91005      1.57626     23.36739        -0.000778     -0.001348      0.003775
      3.69250     -0.00000     23.41708         0.001176     -0.000000     -0.004949
     -4.65360      8.06026     23.36739        -0.000778      0.001348      0.003775
     -1.85899      6.42205     23.36662        -0.003325      0.000156      0.003931
      0.93149      4.81557     23.36662         0.001528     -0.002958      0.003931
      3.70466      3.21447     23.36662        -0.003325     -0.000156      0.003931
      6.49115      1.60109     23.36662         0.001798     -0.002802      0.003931
      9.30719     -0.00000     23.36739         0.001556     -0.000000      0.003775
      0.92751      8.03543     23.36662         0.001798      0.002802      0.003931
      3.71740      6.43873     23.41708        -0.000588     -0.001019     -0.004949
      6.49514      4.82096     23.36662         0.001528      0.002958      0.003931
      0.00000     -0.00000     25.97020        -0.000000      0.000000     -0.002361
     -2.78287      4.82008     25.96469         0.000592     -0.001025      0.001036
      0.00714      3.20935     25.97211        -0.002707      0.001181      0.000443
      2.77581      1.61086     25.97211         0.002376     -0.001753      0.000443
      5.56575     -0.00000     25.96469        -0.001184      0.000000      0.001036
     -2.78784      8.02566     25.97211         0.002376      0.001753      0.000443
     -0.00000      6.42435     25.96065        -0.000000      0.000000     -0.004066
      2.78078      4.81645     25.96469         0.000592      0.001025      0.001036
      5.56365      3.21217     25.96065         0.000000      0.000000     -0.004066
      8.34435      1.59850     25.97211         0.000330      0.002935      0.000443
      2.78070      8.03803     25.97211         0.000330     -0.002935      0.000443
      5.57079      6.42717     25.97211        -0.002707     -0.001181      0.000443
     -1.85321      3.20985     28.56603        -0.000372      0.000644      0.000418
      0.92730      1.60613     28.55742        -0.000851     -0.001475     -0.000359
      3.70642     -0.00000     28.56603         0.000743     -0.000000      0.000418
     -4.63635      8.03040     28.55742        -0.000851      0.001475     -0.000359
     -1.85314      6.42306     28.55325         0.001004     -0.000798     -0.000831
      0.92769      4.82013     28.55325         0.000189      0.001268     -0.000831
      3.71051      3.21346     28.55325         0.001004      0.000798     -0.000831
      6.48910      1.60667     28.55325        -0.001193      0.000470     -0.000831
      9.27271     -0.00000     28.55742         0.001703     -0.000000     -0.000359
      0.92545      8.02986     28.55325        -0.001193     -0.000470     -0.000831
      3.71044      6.42668     28.56603        -0.000372     -0.000644      0.000418
      6.49134      4.81640     28.55325         0.000189     -0.001268     -0.000831
      0.00000     -0.00000     31.14504         0.000000     -0.000000      0.001995
     -2.78064      4.81622     31.13999        -0.000148      0.000256     -0.000341
     -0.00042      3.21175     31.14283        -0.000469      0.000097     -0.000184
      2.78167      1.60551     31.14283         0.000319     -0.000358     -0.000184
      5.56129     -0.00000     31.13999         0.000295     -0.000000     -0.000341
     -2.78198      8.03102     31.14283         0.000319      0.000358     -0.000184
     -0.00000      6.42435     31.13846         0.000000      0.000000      0.000236
      2.78301      4.82031     31.13999        -0.000148     -0.000256     -0.000341
      5.56365      3.21217     31.13846         0.000000     -0.000000      0.000236
      8.34606      1.60624     31.14283         0.000150      0.000455     -0.000184
      2.78241      8.03028     31.14283         0.000150     -0.000455     -0.000184
      5.56323      6.42478     31.14283        -0.000469     -0.000097     -0.000184
     -1.85489      3.21277     33.72840         0.000197     -0.000341      0.000973
      0.92827      1.60782     33.72525        -0.000270     -0.000468      0.000785
      3.70979     -0.00000     33.72840        -0.000394      0.000000      0.000973
     -4.63538      8.02871     33.72525        -0.000270      0.000468      0.000785
     -1.85277      6.42256     33.72529        -0.000069      0.000397      0.000041
      0.92794      4.82070     33.72529        -0.000309     -0.000258      0.000041
      3.71088      3.21397     33.72529        -0.000069     -0.000397      0.000041
      6.48848      1.60674     33.72529         0.000378      0.000139      0.000041
      9.27075     -0.00000     33.72525         0.000540     -0.000000      0.000785
      0.92483      8.02979     33.72529         0.000378     -0.000139      0.000041
      3.70876      6.42376     33.72840         0.000197      0.000341      0.000973
      6.49159      4.81582     33.72529        -0.000309      0.000258      0.000041
      0.00000     -0.00000     36.30613         0.000000     -0.000000      0.001119
     -2.78113      4.81705     36.30914         0.000320     -0.000554     -0.000751
     -0.00107      3.21534     36.30761         0.000185     -0.000420      0.000049
      2.78511      1.60675     36.30761        -0.000456     -0.000050      0.000049
      5.56225     -0.00000     36.30914        -0.000640      0.000000     -0.000751
     -2.77854      8.02978     36.30761        -0.000456      0.000050      0.000049
     -0.00000      6.42435     36.31077         0.000000      0.000000     -0.000763
      2.78253      4.81948     36.30914         0.000320      0.000554     -0.000751
      5.56365      3.21217     36.31077        -0.000000      0.000000     -0.000763
      8.34326      1.60860     36.30761         0.000271     -0.000370      0.000049
      2.77961      8.02792     36.30761         0.000271      0.000370      0.000049
      5.56258      6.42118     36.30761         0.000185      0.000420      0.000049
     -1.85553      3.21388     38.89101         0.000290     -0.000501     -0.002045
      0.92806      1.60745     38.88383        -0.000596     -0.001032     -0.000395
      3.71107     -0.00000     38.89101        -0.000579      0.000000     -0.002045
     -4.63559      8.02908     38.88383        -0.000596      0.001032     -0.000395
     -1.85392      6.42343     38.89352        -0.001443      0.000413     -0.004711
      0.92776      4.81927     38.89352         0.000364     -0.001456     -0.004711
      3.70973      3.21310     38.89352        -0.001443     -0.000413     -0.004711
      6.48981      1.60617     38.89352         0.001079     -0.001043     -0.004711
      9.27119     -0.00000     38.88383         0.001192     -0.000000     -0.000395
      0.92616      8.03035     38.89352         0.001079      0.001043     -0.004711
      3.70811      6.42265     38.89101         0.000290      0.000501     -0.002045
      6.49142      4.81725     38.89352         0.000364      0.001456     -0.004711
      0.00000     -0.00000     41.45034        -0.000000     -0.000000      0.002443
     -2.78263      4.81965     41.47447         0.001967     -0.003407     -0.005623
     -0.00147      3.21449     41.46593         0.002287     -0.000257     -0.001555
      2.78456      1.60597     41.46593        -0.001367      0.001852     -0.001555
      5.56525     -0.00000     41.47447        -0.003934      0.000000     -0.005623
     -2.77908      8.03055     41.46593        -0.001367     -0.001852     -0.001555
     -0.00000      6.42435     41.47103        -0.000000      0.000000     -0.009565
      2.78103      4.81688     41.47447         0.001967      0.003407     -0.005623
      5.56365      3.21217     41.47103        -0.000000      0.000000     -0.009565
      8.34421      1.60852     41.46593        -0.000921     -0.002110     -0.001555
      2.78056      8.02800     41.46593        -0.000921      0.002110     -0.001555
      5.56218      6.42204     41.46593         0.002287      0.000257     -0.001555
     -1.85515      3.21321     44.07037         0.001371     -0.002375     -0.002764
      0.92346      1.59949     44.04158         0.000714      0.001236      0.004924
      3.71030     -0.00000     44.07037        -0.002742      0.000000     -0.002764
     -4.64018      8.03703     44.04158         0.000714     -0.001236      0.004924
     -1.85504      6.43529     44.05626        -0.000890     -0.005514     -0.003246
      0.91805      4.81238     44.05626         0.005220      0.001986     -0.003246
      3.70862      3.20124     44.05626        -0.000890      0.005514     -0.003246
      6.50063      1.61114     44.05626        -0.004330     -0.003528     -0.003246
      9.28037     -0.00000     44.04158        -0.001428      0.000000      0.004924
      0.93699      8.02539     44.05626        -0.004330      0.003528     -0.003246
      3.70850      6.42331     44.07037         0.001371      0.002375     -0.002764
      6.48170      4.82415     44.05626         0.005220     -0.001986     -0.003246
     -1.28205      2.22058      4.63951        -0.002349      0.004069      0.005005
      2.56410     -0.00000      4.63951         0.004698     -0.000000      0.005005
      4.28160      7.41595      4.63951        -0.002349     -0.004069      0.005005
      1.29253      2.23873      8.33795        -0.001686     -0.002921     -0.000292
     -4.27112      7.39779      8.33795        -0.001686      0.002921     -0.000292
      8.54224     -0.00000      8.33795         0.003373     -0.000000     -0.000292
      1.21267      2.10042     18.14129         0.001934      0.003350      0.004441
     -4.35097      7.53611     18.14129         0.001934     -0.003350      0.004441
      8.70195     -0.00000     18.14129        -0.003869      0.000000      0.004441
      0.00000     -0.00000      3.02828        -0.000000     -0.000000      0.007189
     -3.97148      6.87881      5.37765         0.001274     -0.002206     -0.004995
      1.59217      2.75772      5.37765         0.001274      0.002206     -0.004995
      7.94296     -0.00000      5.37765        -0.002547      0.000000     -0.004995
     -1.59921      2.76992      7.62181        -0.001679      0.002909      0.001893
      3.19843     -0.00000      7.62181         0.003358     -0.000000      0.001893
      3.96443      6.86660      7.62181        -0.001679     -0.002909      0.001893
      0.00000     -0.00000      9.86971        -0.000000     -0.000000      0.008570
      0.00000     -0.00000     16.25368        -0.000000      0.000000     -0.004329
     -1.69921      2.94311     18.18228         0.000238     -0.000412      0.004283
      3.39842     -0.00000     18.18228        -0.000475      0.000000      0.004283
      3.86444      6.69341     18.18228         0.000238      0.000412      0.004283
 -----------------------------------------------------------------------------------
    total drift:                               -0.000717     -0.000389     -0.011491


--------------------------------------------------------------------------------------------------------




--------------------------------------------------------------------------------------------------------


  
 reached required accuracy - stopping structural energy minimisation
     LOOP+:  VPU time 3207.72: CPU time 3207.77
  
  
 General timing and accounting informations for this job:
 ========================================================
  
                  Total CPU time used (sec):     3245.117
                            User time (sec):     3102.040
                          System time (sec):      143.076
                         Elapsed time (sec):     3246.531
  
                   Maximum memory used (kb):     1254064.
                   Average memory used (kb):           0.
  
                          Minor page faults:      2119586
                          Major page faults:            0
                 Voluntary context switches:        17434
