       N       E                     dE             d eps       ncg     rms          rms(c)
RMM:   1     0.131397635032E+04    0.13140E+04   -0.14173E+05  6552   0.598E+02
RMM:   2    -0.375031610828E+03   -0.16890E+04   -0.34141E+04  6552   0.156E+02
RMM:   3    -0.346072500852E+03    0.28959E+02   -0.73184E+03  6552   0.686E+01
RMM:   4    -0.420123184934E+03   -0.74051E+02   -0.13736E+03  6552   0.331E+01
RMM:   5    -0.460406058745E+03   -0.40283E+02   -0.42463E+02  6552   0.185E+01
RMM:   6    -0.475241343123E+03   -0.14835E+02   -0.20921E+02  6552   0.126E+01
RMM:   7    -0.483589623061E+03   -0.83483E+01   -0.11974E+02  6552   0.899E+00
RMM:   8    -0.487107541942E+03   -0.35179E+01   -0.68578E+01  6552   0.703E+00
RMM:   9    -0.494458889809E+03   -0.73513E+01   -0.89490E+01 22196   0.546E+00
RMM:  10    -0.496699607588E+03   -0.22407E+01   -0.27692E+01 23198   0.281E+00
RMM:  11    -0.497300224382E+03   -0.60062E+00   -0.62103E+00 23159   0.179E+00
RMM:  12    -0.497702950310E+03   -0.40273E+00   -0.39887E+00 23245   0.131E+00    0.151E+01
RMM:  13    -0.148420634039E+04   -0.98650E+03   -0.90773E+02 20228   0.940E+00    0.439E+01
RMM:  14    -0.513022451445E+03    0.97118E+03   -0.10063E+02 18013   0.471E+00    0.116E+01
RMM:  15    -0.553001255950E+03   -0.39979E+02   -0.28282E+01 19139   0.203E+00    0.168E+01
RMM:  16    -0.583707004872E+03   -0.30706E+02   -0.74084E+01 18450   0.250E+00    0.183E+01
RMM:  17    -0.515369911448E+03    0.68337E+02   -0.18505E+01 19261   0.139E+00    0.106E+01
RMM:  18    -0.491831002824E+03    0.23539E+02   -0.99098E+00 18194   0.101E+00    0.343E+00
RMM:  19    -0.491773206902E+03    0.57796E-01   -0.14963E+00 19802   0.675E-01    0.237E+00
RMM:  20    -0.494437617268E+03   -0.26644E+01   -0.10956E+00 20368   0.423E-01    0.401E+00
RMM:  21    -0.491272941941E+03    0.31647E+01   -0.58966E-01 18505   0.314E-01    0.968E-01
RMM:  22    -0.491202011975E+03    0.70930E-01   -0.12612E-01 19033   0.221E-01    0.408E-01
RMM:  23    -0.491183849501E+03    0.18162E-01   -0.20805E-02 21154   0.864E-02    0.166E-01
RMM:  24    -0.491182813323E+03    0.10362E-02   -0.71606E-03 21653   0.509E-02    0.896E-02
RMM:  25    -0.491182321822E+03    0.49150E-03   -0.27707E-03 21233   0.304E-02    0.334E-02
RMM:  26    -0.491182378031E+03   -0.56210E-04   -0.12584E-03 20953   0.196E-02    0.304E-02
RMM:  27    -0.491182276517E+03    0.10151E-03   -0.47804E-04 18536   0.128E-02    0.131E-02
RMM:  28    -0.491182282956E+03   -0.64388E-05   -0.20752E-04 16349   0.854E-03    0.862E-03
RMM:  29    -0.491182287918E+03   -0.49625E-05   -0.10275E-04 14734   0.665E-03    0.448E-03
RMM:  30    -0.491182288606E+03   -0.68770E-06   -0.51276E-05 12905   0.536E-03
   1 F= -.49118229E+03 E0= -.49116920E+03  d E =-.491182E+03
