 vasp.4.6.28 25Jul05 complex 
 executed on             LinuxIFC date 2013.11.11  13:23:05
 running on    4 nodes
 distr:  one band on    1 nodes,    4 groups


--------------------------------------------------------------------------------------------------------


 INCAR:
 POTCAR:   PAW_PBE Mg 05Jan2001                   
 POTCAR:   PAW_PBE Zn 06Sep2000                   
 POTCAR:   PAW_PBE Y_sv 06Sep2000                 
 POTCAR:   PAW_PBE Mg 05Jan2001                   
   VRHFIN =Mg: s2p0                                                             
   LEXCH  = PE                                                                  
   EATOM  =    23.0029 eV,    1.6907 Ry                                         
                                                                                
   TITEL  = PAW_PBE Mg 05Jan2001                                                
   LULTRA =        F    use ultrasoft PP ?                                      
   IUNSCR =        1    unscreen: 0-lin 1-nonlin 2-no                           
   RPACOR =    2.000    partial core radius                                     
   POMASS =   24.305; ZVAL   =    2.000    mass and valenz                      
   RCORE  =    2.000    outmost cutoff radius                                   
   RWIGS  =    2.880; RWIGS  =    1.524    wigner-seitz radius (au A)           
   ENMAX  =  210.012; ENMIN  =  157.509 eV                                      
   ICORE  =        2    local potential                                         
   LCOR   =        T    correct aug charges                                     
   LPAW   =        T    paw PP                                                  
   EAUG   =  274.554                                                            
   DEXC   =    -.136                                                            
   RMAX   =    3.182    core radius for proj-oper                               
   RAUG   =    1.300    factor for augmentation sphere                          
   RDEP   =    2.025    radius for radial grids                                 
   QCUT   =   -3.929; QGAM   =    7.858    optimization parameters              
                                                                                
   Description                                                                  
     l     E      TYP  RCUT    TYP  RCUT                                        
     0   .000     23  2.000                                                     
     0  2.000     23  2.000                                                     
     1   .000     23  2.000                                                     
     1  2.000     23  2.000                                                     
     2   .000     23  2.000                                                     
  local pseudopotential read in
  partial core-charges read in
  atomic valenz-charges read in
  non local Contribution for L=           0  read in
    real space projection operators read in
  non local Contribution for L=           0  read in
    real space projection operators read in
  non local Contribution for L=           1  read in
    real space projection operators read in
  non local Contribution for L=           1  read in
    real space projection operators read in
    PAW grid and wavefunctions read in
 
   number of l-projection  operators is LMAX  =           4
   number of lm-projection operators is LMMAX =           8
 
 POTCAR:   PAW_PBE Zn 06Sep2000                   
   VRHFIN =Zn: d10 p2                                                           
   LEXCH  = PE                                                                  
   EATOM  =  1749.0928 eV,  128.5547 Ry                                         
                                                                                
   TITEL  = PAW_PBE Zn 06Sep2000                                                
   LULTRA =        F    use ultrasoft PP ?                                      
   IUNSCR =        1    unscreen: 0-lin 1-nonlin 2-no                           
   RPACOR =    2.000    partial core radius                                     
   POMASS =   65.390; ZVAL   =   12.000    mass and valenz                      
   RCORE  =    2.300    outmost cutoff radius                                   
   RWIGS  =    2.400; RWIGS  =    1.270    wigner-seitz radius (au A)           
   ENMAX  =  276.727; ENMIN  =  207.545 eV                                      
   RCLOC  =    1.828    cutoff for local pot                                    
   LCOR   =        T    correct aug charges                                     
   LPAW   =        T    paw PP                                                  
   EAUG   =  575.892                                                            
   DEXC   =    -.003                                                            
   RMAX   =    2.772    core radius for proj-oper                               
   RAUG   =    1.300    factor for augmentation sphere                          
   RDEP   =    2.324    radius for radial grids                                 
   QCUT   =   -4.510; QGAM   =    9.020    optimization parameters              
                                                                                
   Description                                                                  
     l     E      TYP  RCUT    TYP  RCUT                                        
     2   .000     23  2.300                                                     
     2   .000     23  2.300                                                     
     0   .000     23  2.300                                                     
     0   .000     23  2.300                                                     
     1  -.200     23  2.300                                                     
     1   .000     23  2.300                                                     
     3   .000      7   .000                                                     
  local pseudopotential read in
  partial core-charges read in
  atomic valenz-charges read in
  non local Contribution for L=           2  read in
    real space projection operators read in
  non local Contribution for L=           2  read in
    real space projection operators read in
  non local Contribution for L=           0  read in
    real space projection operators read in
  non local Contribution for L=           0  read in
    real space projection operators read in
  non local Contribution for L=           1  read in
    real space projection operators read in
  non local Contribution for L=           1  read in
    real space projection operators read in
    PAW grid and wavefunctions read in
 
   number of l-projection  operators is LMAX  =           6
   number of lm-projection operators is LMMAX =          18
 
 POTCAR:   PAW_PBE Y_sv 06Sep2000                 
   VRHFIN =Y: 4s4p5s4d                                                          
   LEXCH  = PE                                                                  
   EATOM  =  1046.2256 eV,   76.8954 Ry                                         
                                                                                
   TITEL  = PAW_PBE Y_sv 06Sep2000                                              
   LULTRA =        F    use ultrasoft PP ?                                      
   IUNSCR =        1    unscreen: 0-lin 1-nonlin 2-no                           
   RPACOR =    2.200    partial core radius                                     
   POMASS =   88.906; ZVAL   =   11.000    mass and valenz                      
   RCORE  =    2.600    outmost cutoff radius                                   
   RWIGS  =    3.430; RWIGS  =    1.815    wigner-seitz radius (au A)           
   ENMAX  =  211.641; ENMIN  =  158.731 eV                                      
   RCLOC  =    2.212    cutoff for local pot                                    
   LCOR   =        T    correct aug charges                                     
   LPAW   =        T    paw PP                                                  
   EAUG   =  363.258                                                            
   DEXC   =     .000                                                            
   RMAX   =    3.169    core radius for proj-oper                               
   RAUG   =    1.300    factor for augmentation sphere                          
   RDEP   =    2.745    radius for radial grids                                 
   QCUT   =   -3.944; QGAM   =    7.888    optimization parameters              
                                                                                
   Description                                                                  
     l     E      TYP  RCUT    TYP  RCUT                                        
     0   .000     23  2.600                                                     
     0   .000     23  2.600                                                     
     1   .000     23  2.600                                                     
     1   .000     23  2.600                                                     
     2   .000     23  2.600                                                     
     2   .000     23  2.600                                                     
     3   .000      7   .000                                                     
  local pseudopotential read in
  partial core-charges read in
  atomic valenz-charges read in
  non local Contribution for L=           0  read in
    real space projection operators read in
  non local Contribution for L=           0  read in
    real space projection operators read in
  non local Contribution for L=           1  read in
    real space projection operators read in
  non local Contribution for L=           1  read in
    real space projection operators read in
  non local Contribution for L=           2  read in
    real space projection operators read in
  non local Contribution for L=           2  read in
    real space projection operators read in
    PAW grid and wavefunctions read in
 
   number of l-projection  operators is LMAX  =           6
   number of lm-projection operators is LMMAX =          18
 
 Optimization of the real space projectors (new method)

 maximal supplied QI-value         = 18.90
 optimisation between [QCUT,QGAM] = [  8.69, 17.57] = [ 21.16, 86.49] Ry 
 Optimized for a Real-space Cutoff    1.50 Angstroem

   l    n(q)    QCUT    max X(q) W(low)/X(q) W(high)/X(q)  e(spline) 
   0      8     8.693    21.263    0.25E-04    0.57E-05    0.11E-07
   0      8     8.693    32.896    0.17E-03    0.18E-03    0.83E-07
   1      7     8.693    18.024    0.20E-04    0.82E-04    0.23E-07
   1      7     8.693    48.877    0.92E-04    0.21E-03    0.19E-06
 Optimization of the real space projectors (new method)

 maximal supplied QI-value         = 16.25
 optimisation between [QCUT,QGAM] = [  8.78, 17.71] = [ 21.57, 87.87] Ry 
 Optimized for a Real-space Cutoff    1.55 Angstroem

   l    n(q)    QCUT    max X(q) W(low)/X(q) W(high)/X(q)  e(spline) 
   2      7     8.776     5.523    0.25E-04    0.61E-04    0.37E-07
   2      7     8.776     9.671    0.20E-03    0.41E-03    0.27E-06
   0      8     8.776    11.246    0.21E-04    0.15E-05    0.57E-08
   0      8     8.776    34.692    0.16E-03    0.15E-03    0.68E-07
   1      8     8.776     4.877    0.32E-04    0.71E-04    0.29E-07
   1      8     8.776     6.599    0.91E-04    0.23E-03    0.83E-07
 Optimization of the real space projectors (new method)

 maximal supplied QI-value         = 14.36
 optimisation between [QCUT,QGAM] = [  8.76, 17.67] = [ 21.49, 87.39] Ry 
 Optimized for a Real-space Cutoff    1.96 Angstroem

   l    n(q)    QCUT    max X(q) W(low)/X(q) W(high)/X(q)  e(spline) 
   0     10     8.761     8.406    0.17E-04    0.25E-05    0.14E-07
   0     10     8.761    10.301    0.37E-04    0.12E-04    0.59E-07
   1     10     8.761     4.485    0.11E-05    0.41E-05    0.34E-07
   1     10     8.761    11.894    0.99E-05    0.55E-04    0.20E-06
   2      9     8.761     4.489    0.16E-04    0.99E-05    0.66E-07
   2      9     8.761    42.100    0.20E-03    0.66E-04    0.63E-06
 PAW_PBE Mg 05Jan2001                   :
 energy of atom  1       EATOM=  -23.0029
 kinetic energy error for atom=    0.0002 (will be added to EATOM!!)
 PAW_PBE Zn 06Sep2000                   :
 energy of atom  2       EATOM=-1749.0928
 kinetic energy error for atom=    0.0293 (will be added to EATOM!!)
 PAW_PBE Y_sv 06Sep2000                 :
 energy of atom  3       EATOM=-1046.2256
 kinetic energy error for atom=    0.0083 (will be added to EATOM!!)
 
 EXHCAR: internal setup
 exchange correlation table for  LEXCH =        8
   RHO(1)=    0.500       N(1)  =     2000
   RHO(2)=  100.500       N(2)  =     4000
 
 POSCAR: New structure                           
  positions in direct lattice
  velocities in cartesian coordinates
 


--------------------------------------------------------------------------------------------------------


 ion  position               nearest neighbor table
   1  0.013  0.508  0.999-  12 3.09   9 3.14   2 3.18   8 3.18  58 3.19  47 3.19  51 3.23   6 3.25
                            11 3.25  17 3.25   5 3.27  66 3.50
   2  0.187  0.354  0.992-  48 3.10  52 3.13  47 3.13  13 3.14   6 3.16   1 3.18   7 3.21   3 3.24
                             9 3.27  65 3.30  66 3.32
   3  0.354  0.187  0.992-  48 3.10  53 3.13  49 3.13  14 3.14   8 3.16   4 3.18   7 3.21   2 3.24
                             5 3.27  65 3.30  67 3.32
   4  0.508  0.013  0.999-  15 3.09   5 3.14   3 3.18   6 3.18  56 3.19  49 3.19  54 3.23   8 3.25
                            10 3.25  16 3.25   9 3.27  67 3.50
   5  0.181  0.847  0.996-  60 2.92  50 3.12   4 3.14  51 3.14  12 3.19  11 3.19  49 3.22   6 3.23
                             1 3.27   3 3.27  67 3.32  65 3.34
   6  0.350  0.683  0.997-  13 3.11  12 3.16   2 3.16  10 3.17  51 3.17   4 3.18  56 3.19  52 3.22
                             7 3.23   5 3.23  16 3.23   1 3.25
   7  0.520  0.520  0.991-  57 3.10  14 3.13  13 3.13  53 3.16  52 3.16  10 3.17  11 3.17   3 3.21
                             2 3.21   8 3.23   6 3.23  68 3.38
   8  0.683  0.350  0.997-  14 3.11  15 3.16   3 3.16  11 3.17  54 3.17   1 3.18  58 3.19  53 3.22
                             7 3.23   9 3.23  17 3.23   4 3.25
   9  0.847  0.181  0.996-  61 2.92  55 3.12   1 3.14  54 3.14  15 3.19  10 3.19  47 3.22   8 3.23
                             4 3.27   2 3.27  66 3.32  65 3.34
  10  0.679  0.849  0.995-  61 2.83  56 3.13  55 3.13  57 3.16   6 3.17   7 3.17   9 3.19  68 3.24
                             4 3.25  11 3.30  16 3.38  65 3.42
  11  0.849  0.679  0.995-  60 2.83  58 3.13  50 3.13  57 3.16   8 3.17   7 3.17   5 3.19  68 3.24
                             1 3.25  10 3.30  17 3.38  65 3.42
  12  0.188  0.685  0.159-  60 2.81  20 3.06   1 3.09  16 3.14   6 3.16  17 3.19   5 3.19  13 3.27
                            69 3.31  67 3.41  66 3.42
  13  0.369  0.528  0.155-  14 3.09   6 3.11   7 3.13   2 3.14  16 3.20  70 3.20  66 3.24  20 3.27
                            12 3.27  68 3.29
  14  0.528  0.369  0.155-  13 3.09   8 3.11   7 3.13   3 3.14  17 3.20  70 3.20  67 3.24  21 3.27
                            15 3.27  68 3.29
  15  0.685  0.188  0.159-  61 2.81  21 3.06   4 3.09  17 3.14   8 3.16  16 3.19   9 3.19  14 3.27
                            71 3.31  66 3.41  67 3.42
  16  0.515  0.859  0.171-  61 2.81  19 3.06  12 3.14  15 3.19  13 3.20   6 3.23   4 3.25  22 3.27
                            68 3.35  10 3.38  20 3.46  67 3.49  71 3.99
  17  0.859  0.515  0.171-  60 2.81  18 3.06  15 3.14  12 3.19  14 3.20   8 3.23   1 3.25  23 3.27
                            68 3.35  11 3.38  21 3.46  66 3.49  69 3.99
  18  0.978  0.482  0.341-  63 2.81  17 3.06  27 3.09  21 3.14  34 3.16  20 3.19  24 3.19  23 3.27
                            66 3.31  71 3.41  69 3.42
  19  0.482  0.978  0.341-  64 2.81  16 3.06  30 3.09  20 3.14  32 3.16  21 3.19  25 3.19  22 3.27
                            67 3.31  69 3.41  71 3.42
  20  0.308  0.652  0.329-  63 2.81  12 3.06  19 3.14  18 3.19  22 3.20  32 3.23  27 3.25  13 3.27
                            70 3.35  28 3.38  16 3.46  69 3.49  66 3.99
  21  0.652  0.308  0.329-  64 2.81  15 3.06  18 3.14  19 3.19  23 3.20  34 3.23  30 3.25  14 3.27
                            70 3.35  29 3.38  17 3.46  71 3.49  67 3.99
  22  0.639  0.798  0.345-  23 3.09  32 3.11  33 3.13  31 3.14  20 3.20  68 3.20  71 3.24  16 3.27
                            19 3.27  70 3.29
  23  0.798  0.639  0.345-  22 3.09  34 3.11  33 3.13  26 3.14  21 3.20  68 3.20  69 3.24  17 3.27
                            18 3.27  70 3.29
  24  0.986  0.320  0.504-  63 2.92  37 3.12  30 3.14  36 3.14  18 3.19  28 3.19  44 3.22  34 3.23
                            27 3.27  31 3.27  71 3.32  72 3.34
  25  0.320  0.986  0.504-  64 2.92  38 3.12  27 3.14  39 3.14  19 3.19  29 3.19  40 3.22  32 3.23
                            30 3.27  26 3.27  69 3.32  72 3.34
  26  0.980  0.813  0.508-  35 3.10  46 3.13  40 3.13  23 3.14  34 3.16  27 3.18  33 3.21  31 3.24
                            25 3.27  72 3.30  69 3.32
  27  0.154  0.659  0.501-  18 3.09  25 3.14  26 3.18  32 3.18  41 3.19  40 3.19  36 3.23  34 3.25
                            28 3.25  20 3.25  24 3.27  69 3.50
  28  0.317  0.488  0.505-  63 2.83  41 3.13  37 3.13  42 3.16  32 3.17  33 3.17  24 3.19  70 3.24
                            27 3.25  29 3.30  20 3.38  72 3.42
  29  0.488  0.317  0.505-  64 2.83  43 3.13  38 3.13  42 3.16  34 3.17  33 3.17  25 3.19  70 3.24
                            30 3.25  28 3.30  21 3.38  72 3.42
  30  0.659  0.154  0.501-  19 3.09  24 3.14  31 3.18  34 3.18  43 3.19  44 3.19  39 3.23  32 3.25
                            29 3.25  21 3.25  25 3.27  71 3.50
  31  0.813  0.980  0.508-  35 3.10  45 3.13  44 3.13  22 3.14  32 3.16  30 3.18  33 3.21  26 3.24
                            24 3.27  72 3.30  71 3.32
  32  0.484  0.817  0.503-  22 3.11  19 3.16  31 3.16  28 3.17  39 3.17  27 3.18  41 3.19  45 3.22
                            33 3.23  25 3.23  20 3.23  30 3.25
  33  0.647  0.647  0.509-  42 3.10  22 3.13  23 3.13  45 3.16  46 3.16  29 3.17  28 3.17  31 3.21
                            26 3.21  32 3.23  34 3.23  70 3.38
  34  0.817  0.484  0.503-  23 3.11  18 3.16  26 3.16  29 3.17  36 3.17  30 3.18  43 3.19  46 3.22
                            33 3.23  24 3.23  21 3.23  27 3.25
  35  0.996  0.996  0.665-  26 3.10  31 3.10  37 3.13  38 3.13  48 3.20  40 3.21  44 3.21  46 3.23
                            45 3.23  50 3.24  55 3.24  72 3.77
  36  0.996  0.496  0.667-  24 3.14  51 3.17  34 3.17  41 3.18  47 3.18  58 3.19  40 3.20  43 3.22
                            46 3.22  27 3.23  44 3.24  37 3.28
  37  0.160  0.322  0.663-  24 3.12  38 3.13  35 3.13  28 3.13  52 3.19  42 3.19  44 3.20  47 3.21
                            48 3.24  41 3.27  36 3.28  72 3.78
  38  0.322  0.160  0.663-  25 3.12  37 3.13  35 3.13  29 3.13  53 3.19  42 3.19  40 3.20  49 3.21
                            48 3.24  43 3.27  39 3.28  72 3.78
  39  0.496  0.996  0.667-  25 3.14  54 3.17  32 3.17  43 3.18  49 3.18  56 3.19  44 3.20  41 3.22
                            45 3.22  30 3.23  40 3.24  38 3.28
  40  0.160  0.828  0.670-  49 3.11  26 3.13  51 3.18  46 3.19  27 3.19  36 3.20  38 3.20  35 3.21
                            50 3.21  25 3.22  41 3.23  39 3.24
  41  0.326  0.661  0.667-  28 3.13  52 3.14  36 3.18  56 3.18  32 3.19  51 3.19  27 3.19  39 3.22
                            45 3.23  40 3.23  42 3.25  37 3.27
  42  0.492  0.492  0.668-  33 3.10  53 3.13  52 3.13  29 3.16  28 3.16  57 3.18  38 3.19  37 3.19
                            45 3.23  46 3.23  41 3.25  43 3.25
  43  0.661  0.326  0.667-  29 3.13  53 3.14  39 3.18  58 3.18  34 3.19  54 3.19  30 3.19  36 3.22
                            46 3.23  44 3.23  42 3.25  38 3.27
  44  0.828  0.160  0.670-  47 3.11  31 3.13  54 3.18  45 3.19  30 3.19  39 3.20  37 3.20  35 3.21
                            55 3.21  24 3.22  43 3.23  36 3.24
  45  0.661  0.828  0.671-  57 3.13  31 3.13  56 3.14  33 3.16  44 3.19  55 3.19  32 3.22  39 3.22
                            41 3.23  35 3.23  42 3.23  46 3.24
  46  0.828  0.661  0.671-  57 3.13  26 3.13  58 3.14  33 3.16  40 3.19  50 3.19  34 3.22  36 3.22
                            43 3.23  35 3.23  42 3.23  45 3.24
  47  0.007  0.338  0.830-  44 3.11   2 3.13  36 3.18  52 3.19   1 3.19  51 3.20  55 3.20  48 3.21
                            37 3.21   9 3.22  58 3.23  54 3.24
  48  0.170  0.170  0.835-   2 3.10   3 3.10  50 3.13  55 3.13  35 3.20  47 3.21  49 3.21  52 3.23
                            53 3.23  37 3.24  38 3.24  65 3.77
  49  0.338  0.007  0.830-  40 3.11   3 3.13  39 3.18  53 3.19   4 3.19  54 3.20  50 3.20  48 3.21
                            38 3.21   5 3.22  56 3.23  51 3.24
  50  0.007  0.845  0.837-   5 3.12  55 3.13  48 3.13  11 3.13  46 3.19  57 3.19  49 3.20  40 3.21
                            35 3.24  58 3.27  51 3.28  65 3.78
  51  0.171  0.671  0.833-   5 3.14  36 3.17   6 3.17  58 3.18  40 3.18  41 3.19  47 3.20  56 3.22
                            52 3.22   1 3.23  49 3.24  50 3.28
  52  0.338  0.505  0.829-  42 3.13   2 3.13  41 3.14   7 3.16  47 3.19  37 3.19   6 3.22  51 3.22
                            56 3.23  48 3.23  57 3.23  53 3.24
  53  0.505  0.338  0.829-  42 3.13   3 3.13  43 3.14   7 3.16  49 3.19  38 3.19   8 3.22  54 3.22
                            58 3.23  48 3.23  57 3.23  52 3.24
  54  0.671  0.171  0.833-   9 3.14  39 3.17   8 3.17  56 3.18  44 3.18  43 3.19  49 3.20  58 3.22
                            53 3.22   4 3.23  47 3.24  55 3.28
  55  0.845  0.007  0.837-   9 3.12  50 3.13  48 3.13  10 3.13  45 3.19  57 3.19  47 3.20  44 3.21
                            35 3.24  56 3.27  54 3.28  65 3.78
  56  0.505  0.841  0.833-  10 3.13  45 3.14  54 3.18  41 3.18   6 3.19  39 3.19   4 3.19  51 3.22
                            52 3.23  49 3.23  57 3.25  55 3.27
  57  0.674  0.674  0.832-   7 3.10  45 3.13  46 3.13  10 3.16  11 3.16  42 3.18  55 3.19  50 3.19
                            53 3.23  52 3.23  58 3.25  56 3.25
  58  0.841  0.505  0.833-  11 3.13  46 3.14  51 3.18  43 3.18   8 3.19  36 3.19   1 3.19  54 3.22
                            53 3.23  47 3.23  57 3.25  50 3.27
  59  0.201  0.201  0.247-  62 2.61  63 2.73  64 2.73  70 3.07  67 3.08  66 3.08  72 3.33  65 3.57

  60  0.017  0.801  0.146-  62 2.73  17 2.81  12 2.81  11 2.83   5 2.92  65 2.95  69 2.97  68 3.06
                            67 3.16
  61  0.801  0.017  0.146-  62 2.73  16 2.81  15 2.81  10 2.83   9 2.92  65 2.95  71 2.97  68 3.06
                            66 3.16
  62  0.966  0.966  0.253-  59 2.61  60 2.73  61 2.73  68 3.07  71 3.08  69 3.08  65 3.33  72 3.57

  63  0.150  0.365  0.354-  59 2.73  20 2.81  18 2.81  28 2.83  24 2.92  72 2.95  66 2.97  70 3.06
                            71 3.16
  64  0.365  0.150  0.354-  59 2.73  21 2.81  19 2.81  29 2.83  25 2.92  72 2.95  67 2.97  70 3.06
                            69 3.16
  65  0.028  0.028  0.048-  60 2.95  61 2.95   2 3.30   3 3.30  62 3.33   5 3.34   9 3.34  11 3.42
                            10 3.42  59 3.57  48 3.77  50 3.78  55 3.78  66 3.85  67 3.85  68 4.07
  66  0.037  0.333  0.175-  63 2.97  59 3.08  61 3.16  13 3.24  18 3.31   2 3.32   9 3.32  71 3.34
                            15 3.41  12 3.42  17 3.49   1 3.50  65 3.85  20 3.99
  67  0.333  0.037  0.175-  64 2.97  59 3.08  60 3.16  14 3.24  19 3.31   3 3.32   5 3.32  69 3.34
                            12 3.41  15 3.42  16 3.49   4 3.50  65 3.85  21 3.99
  68  0.711  0.711  0.166-  61 3.06  60 3.06  62 3.07  23 3.20  22 3.20  10 3.24  11 3.24  14 3.29
                            13 3.29  17 3.35  16 3.35   7 3.38  70 3.95  65 4.07
  69  0.130  0.834  0.325-  60 2.97  62 3.08  64 3.16  23 3.24  12 3.31  26 3.32  25 3.32  67 3.34
                            19 3.41  18 3.42  20 3.49  27 3.50  72 3.85  17 3.99
  70  0.456  0.456  0.334-  64 3.06  63 3.06  59 3.07  13 3.20  14 3.20  29 3.24  28 3.24  22 3.29
                            23 3.29  20 3.35  21 3.35  33 3.38  68 3.95  72 4.07
  71  0.834  0.130  0.325-  61 2.97  62 3.08  63 3.16  22 3.24  15 3.31  31 3.32  24 3.32  66 3.34
                            18 3.41  19 3.42  21 3.49  30 3.50  72 3.85  16 3.99
  72  0.138  0.138  0.452-  63 2.95  64 2.95  26 3.30  31 3.30  59 3.33  24 3.34  25 3.34  28 3.42
                            29 3.42  62 3.57  35 3.77  37 3.78  38 3.78  69 3.85  71 3.85  70 4.07
 
  Warning from LATTYP: Got some problem with cell dimensions!
  Tried to take original basis but could not verify dimensions!
  LATTYP: Found a base centered monoclinic cell.
 ALAT       =    11.0892025570
 B/A-ratio  =     1.7477560058
 C/A-ratio  =     2.3858789818
 COS(beta)  =    -0.4004527508
  
  Lattice vectors:
  
 A1 = (  -5.6210322772,   9.6453068735,  -0.1502682121)
 A2 = (  11.1635969183,  -0.0453033107,  -0.1502682121)
 A3 = ( -10.8752309351, -18.8364525238, -15.0637467540)
 Subroutine PRICEL returns:
 Original cell was already a primitive cell.
 

Analysis of symmetry for initial positions (statically):

 Routine SETGRP: Setting up the symmetry group for a 
 base centered monoclinic supercell.


 Subroutine GETGRP returns: Found  4 space group operations
 (whereof  2 operations were pure point group operations)
 out of a pool of  4 trial point group operations.


The static configuration has the point symmetry C_1h.
 The point group associated with its full space group is C_2h.

Analysis of symmetry for dynamics (positions and initial velocities):

 Subroutine DYNSYM returns: Found  4 space group operations
 (whereof  2 operations were pure point group operations)
 out of a pool of  4 trial space group operations
 (whereof  2 operations were pure point group operations)
 and found also     1 'primitive' translations


The dynamic configuration has the point symmetry C_1h.
 The point group associated with its full space group is C_2h.
 
 
 KPOINTS: Automatic mesh                          

Automatic generation of k-mesh.
 generate k-points for:   5   5   3
 
 Subroutine IBZKPT returns following result:
 ===========================================
 
 Found     24 irreducible k-points:
 
 Following reciprocal coordinates:
            Coordinates               Weight
  0.000000  0.000000  0.000000      1.000000
  0.200000  0.000000  0.000000      4.000000
  0.400000  0.000000  0.000000      4.000000
  0.200000  0.200000  0.000000      2.000000
  0.400000  0.200000  0.000000      4.000000
 -0.400000  0.200000  0.000000      4.000000
 -0.200000  0.200000  0.000000      2.000000
  0.400000  0.400000  0.000000      2.000000
 -0.400000  0.400000  0.000000      2.000000
  0.000000  0.000000  0.333333      2.000000
  0.200000  0.000000  0.333333      4.000000
  0.400000  0.000000  0.333333      4.000000
 -0.400000  0.000000  0.333333      4.000000
 -0.200000  0.000000  0.333333      4.000000
  0.200000  0.200000  0.333333      2.000000
  0.400000  0.200000  0.333333      4.000000
 -0.400000  0.200000  0.333333      4.000000
 -0.200000  0.200000  0.333333      4.000000
  0.400000  0.400000  0.333333      2.000000
 -0.400000  0.400000  0.333333      4.000000
 -0.200000  0.400000  0.333333      4.000000
 -0.400000 -0.400000  0.333333      2.000000
 -0.200000 -0.400000  0.333333      4.000000
 -0.200000 -0.200000  0.333333      2.000000
 
 Following cartesian coordinates:
            Coordinates               Weight
  0.000000  0.000000  0.000000      1.000000
  0.017964  0.010477  0.000484      4.000000
  0.035929  0.020953  0.000968      4.000000
  0.018055  0.031273  0.000968      2.000000
  0.036020  0.041749  0.001452      4.000000
 -0.035838 -0.000157 -0.000484      4.000000
 -0.017873  0.010319  0.000000      2.000000
  0.036111  0.062545  0.001935      2.000000
 -0.035747  0.020639  0.000000      2.000000
  0.000289  0.000500  0.021295      2.000000
  0.018253  0.010977  0.021778      4.000000
  0.036217  0.021453  0.022262      4.000000
 -0.035640 -0.020453  0.020327      4.000000
 -0.017676 -0.009977  0.020811      4.000000
  0.018344  0.031773  0.022262      2.000000
  0.036308  0.042249  0.022746      4.000000
 -0.035549  0.000343  0.020811      4.000000
 -0.017585  0.010819  0.021295      4.000000
  0.036399  0.063045  0.023230      2.000000
 -0.035458  0.021139  0.021295      4.000000
 -0.017494  0.031615  0.021778      4.000000
 -0.035822 -0.062045  0.019359      2.000000
 -0.017858 -0.051569  0.019843      4.000000
 -0.017767 -0.030773  0.020327      2.000000
 


--------------------------------------------------------------------------------------------------------




 Dimension of arrays:
   k-Points           NKPTS =     24   number of bands    NBANDS=    176
   number of dos      NEDOS =    301   number of ions     NIONS =     72
   non local maximal  LDIM  =      6   non local SUM 2l+1 LMDIM =     18
   total plane-waves  NPLWV = 368640
   max r-space proj   IRMAX =   6970   max aug-charges    IRDMAX= 104536
   dimension x,y,z NGX =    64 NGY =   64 NGZ =   90
   dimension x,y,z NGXF=   128 NGYF=  128 NGZF=  180
   support grid    NGXF=   256 NGYF=  256 NGZF=  360
   ions per type =              58   6   8
 NGX,Y,Z   is equivalent  to a cutoff of   9.53,  9.53,  9.55 a.u.
 NGXF,Y,Z  is equivalent  to a cutoff of  19.06, 19.06, 19.10 a.u.


 I would recommend the setting:
   dimension x,y,z NGX =    63 NGY =   63 NGZ =   89
 SYSTEM =  Gd unit fixed hcp k-0.5 cut-300 yosuke  
 POSCAR =  New structure                           

 Startparameter for this run:
   NWRITE =      2    write-flag & timer
   PREC   = accura    medium, high low
   ISTART =      0    job   : 0-new  1-cont  2-samecut
   ICHARG =      2    charge: 1-file 2-atom 10-const
   ISPIN  =      1    spin polarized calculation?
   LNONCOLLINEAR =      F non collinear calculations
   LSORBIT =      F    spin-orbit coupling
   INIWAV =      1    electr: 0-lowe 1-rand  2-diag
   LASPH  =      F    aspherical Exc in radial PAW
   METAGGA=      F    non-selfconsistent MetaGGA calc.

 Electronic Relaxation 1
   ENCUT  =  300.0 eV  22.05 Ry    4.70 a.u.  15.77 15.77 22.13*2*pi/ulx,y,z
   ENINI  =  300.0     initial cutoff
   ENAUG  =  575.9 eV  augmentation charge cutoff
   NELM   =     60;   NELMIN= 12; NELMDL=-12     # of ELM steps 
   EDIFF  = 0.1E-04   stopping-criterion for ELM
   LREAL  =      T    real-space projection
   LCOMPAT=      F    compatible to vasp.4.4
   LREAL_COMPAT= F    compatible to vasp.4.5.1-3
   GGA_COMPAT  = T    GGA compatible to vasp.4.4-vasp.4.6
   LMAXPAW     = -100 max onsite density
   LMAXMIX     =    2 max onsite mixed and CHGCAR
   VOSKOWN=      1    Vosko Wilk Nusair interpolation
   ROPT   =   -0.00025  -0.00025  -0.00025
 Ionic relaxation
   EDIFFG = -.2E-01   stopping-criterion for IOM
   NSW    =     60    number of steps for IOM
   NBLOCK =      1;   KBLOCK =     60    inner block; outer block 
   IBRION =      2    ionic relax: 0-MD 1-quasi-New 2-CG
   NFREE  =      1    steps in history (QN), initial steepest desc. (CG)
   ISIF   =      3    stress and relaxation
   IWAVPR =     11    prediction:  0-non 1-charg 2-wave 3-comb
   ISYM   =      2    0-nonsym 1-usesym 2-fastsym
   LCORR  =      T    Harris-Foulkes like correction to forces

   POTIM  =   0.50    time-step for ionic-motion
   TEIN   =    0.0    initial temperature
   TEBEG  =    0.0;   TEEND  =   0.0 temperature during run
   SMASS  =  -3.00    Nose mass-parameter (am)
   estimated Nose-frequenzy (Omega)   =  0.10E-29 period in steps =****** mass=  -0.285E-26a.u.
   NPACO  =    256;   APACO  = 16.0  distance and # of slots for P.C.
   PSTRESS=    0.0 pullay stress

  Mass of Ions in am
   POMASS =  24.30 65.39 88.91
  Ionic Valenz
   ZVAL   =   2.00 12.00 11.00
  Atomic Wigner-Seitz radii
   RWIGS  =  -1.00 -1.00 -1.00
   NELECT =     276.0000    total number of electrons
   NUPDOWN=      -1.0000    fix difference up-down

 DOS related values:
   EMIN   =  10.00;   EMAX   =-10.00  energy-range for DOS
   ISMEAR =     1;   SIGMA  =   0.20  broadening in eV -4-tet -1-fermi 0-gaus

 Electronic relaxation 2 (details)
   IALGO  =     48    algorithm
   LDIAG  =      T    sub-space diagonalisation
   IMIX   =      4    mixing-type and parameters
     AMIX     =   0.40;   BMIX     =  1.00
     AMIX_MAG =   1.60;   BMIX_MAG =  1.00
     AMIN     =   0.10
     WC   =   100.;   INIMIX=   1;  MIXPRE=   1

 Intra band minimization:
   WEIMIN = 0.0010     energy-eigenvalue tresh-hold
   EBREAK =  0.14E-07  absolut break condition
   DEPER  =   0.30     relativ break condition  

   TIME   =   0.10     timestep for ELM

  volume/ion in A,a.u.               =      23.35       157.60
  Fermi-wavevector in a.u.,eV,Ry     =   0.896349 10.931495  0.803442

 Second variation
   LSECVAR=     F    do a second variation
 
 Write flags
   LWAVE  =      F    write WAVECAR
   LCHARG =      T    write CHGCAR
   LVTOT  =      F    write LOCPOT, local potential
   LELF   =      F    write electronic localiz. function (ELF)
   LORBIT =      0    0 simple, 1 ext, 2 COOP (PROOUT)


 Dipole corrections
   IDIPOL =      0    1-x, 2-y, 3-z
   LDIPOL =      F    correct potential



--------------------------------------------------------------------------------------------------------


 conjugate gradient relaxation of ions
 charge density will be updated during run
 non-spin polarized calculation
 RMM-DIIS sequential band-by-band
 performe sub-space diagonalisation
    before iterative eigenvector-optimisation
 modified Broyden-mixing scheme, WC =      100.0
 initial mixing is a Kerker type mixing with AMIX =  0.4000 and BMIX =      1.0000
 Hartree-type preconditioning will be used
 using additional bands           38
 real space projection scheme for non local part
 use partial core corrections
 calculate Harris-corrections to forces 
   (improved forces if not selfconsistent)
 use gradient corrections 
 use of overlap-Matrix (Vanderbilt PP)
 Methfessel and Paxton  Order N= 1 SIGMA  =   0.20


--------------------------------------------------------------------------------------------------------


  energy-cutoff  :      300.00
  volume of cell :     1681.52
      direct lattice vectors                 reciprocal lattice vectors
    11.163596918 -0.045303311 -0.150268212     0.089822008  0.052383605  0.002419293
    -5.621032277  9.645306873 -0.150268212     0.000454529  0.103979944  0.002419293
    -0.209898347 -0.363554602 15.664819602     0.000865997  0.001499952  0.063883729

  length of vectors
    11.164700134 11.164700134 15.670443594     0.104009078  0.104009078  0.063907203


 
 k-points in units of 2pi/SCALE and weight: Automatic mesh                          
   0.00000000  0.00000000  0.00000000       0.013
   0.01796440  0.01047672  0.00048386       0.053
   0.03592880  0.02095344  0.00096772       0.053
   0.01805531  0.03127271  0.00096772       0.027
   0.03601971  0.04174943  0.00145158       0.053
  -0.03583790 -0.00015745 -0.00048386       0.053
  -0.01787350  0.01031927  0.00000000       0.027
   0.03611061  0.06254542  0.00193543       0.027
  -0.03574699  0.02063854  0.00000000       0.027
   0.00028867  0.00049998  0.02129458       0.027
   0.01825307  0.01097670  0.02177843       0.053
   0.03621747  0.02145343  0.02226229       0.053
  -0.03564014 -0.02045346  0.02032686       0.053
  -0.01767574 -0.00997674  0.02081072       0.053
   0.01834397  0.03177269  0.02226229       0.027
   0.03630837  0.04224941  0.02274615       0.053
  -0.03554923  0.00034253  0.02081072       0.053
  -0.01758483  0.01081925  0.02129458       0.053
   0.03639928  0.06304540  0.02323001       0.027
  -0.03545833  0.02113852  0.02129458       0.053
  -0.01749392  0.03161524  0.02177843       0.053
  -0.03582195 -0.06204544  0.01935914       0.027
  -0.01785755 -0.05156871  0.01984300       0.053
  -0.01776664 -0.03077273  0.02032686       0.027
 
 k-points in reciprocal lattice and weights: Automatic mesh                          
   0.00000000  0.00000000  0.00000000       0.013
   0.20000000  0.00000000  0.00000000       0.053
   0.40000000  0.00000000  0.00000000       0.053
   0.20000000  0.20000000  0.00000000       0.027
   0.40000000  0.20000000  0.00000000       0.053
  -0.40000000  0.20000000  0.00000000       0.053
  -0.20000000  0.20000000  0.00000000       0.027
   0.40000000  0.40000000  0.00000000       0.027
  -0.40000000  0.40000000  0.00000000       0.027
   0.00000000  0.00000000  0.33333333       0.027
   0.20000000  0.00000000  0.33333333       0.053
   0.40000000  0.00000000  0.33333333       0.053
  -0.40000000  0.00000000  0.33333333       0.053
  -0.20000000  0.00000000  0.33333333       0.053
   0.20000000  0.20000000  0.33333333       0.027
   0.40000000  0.20000000  0.33333333       0.053
  -0.40000000  0.20000000  0.33333333       0.053
  -0.20000000  0.20000000  0.33333333       0.053
   0.40000000  0.40000000  0.33333333       0.027
  -0.40000000  0.40000000  0.33333333       0.053
  -0.20000000  0.40000000  0.33333333       0.053
  -0.40000000 -0.40000000  0.33333333       0.027
  -0.20000000 -0.40000000  0.33333333       0.053
  -0.20000000 -0.20000000  0.33333333       0.027
 
 position of ions in fractional coordinates (direct lattice) 
   0.01298424  0.50751383  0.99926218
   0.18664398  0.35375487  0.99154259
   0.35375487  0.18664398  0.99154259
   0.50751383  0.01298424  0.99926218
   0.18112214  0.84699912  0.99603915
   0.35005881  0.68285420  0.99719629
   0.51971455  0.51971455  0.99110142
   0.68285420  0.35005881  0.99719629
   0.84699912  0.18112214  0.99603915
   0.67900971  0.84943214  0.99489699
   0.84943214  0.67900971  0.99489699
   0.18842587  0.68491253  0.15895162
   0.36853004  0.52774445  0.15456367
   0.52774445  0.36853004  0.15456367
   0.68491253  0.18842587  0.15895162
   0.51465374  0.85894020  0.17109688
   0.85894020  0.51465374  0.17109688
   0.97824113  0.48175445  0.34104837
   0.48175445  0.97824113  0.34104837
   0.30772580  0.65201325  0.32890310
   0.65201325  0.30772580  0.32890310
   0.63892254  0.79813596  0.34543631
   0.79813596  0.63892254  0.34543631
   0.98554485  0.31966688  0.50396085
   0.31966688  0.98554485  0.50396085
   0.98002302  0.81291113  0.50845741
   0.15368276  0.65915315  0.50073782
   0.31723386  0.48765728  0.50510301
   0.48765728  0.31723386  0.50510301
   0.65915315  0.15368276  0.50073782
   0.81291113  0.98002302  0.50845741
   0.48381278  0.81660719  0.50280371
   0.64695244  0.64695244  0.50889858
   0.81660719  0.48381278  0.50280371
   0.99624992  0.99624992  0.66530833
   0.99572003  0.49592104  0.66671745
   0.16013751  0.32170984  0.66315485
   0.32170984  0.16013751  0.66315485
   0.49592104  0.99572003  0.66671745
   0.15975718  0.82834147  0.66994875
   0.32581957  0.66126435  0.66736839
   0.49217796  0.49217796  0.66793269
   0.66126435  0.32581957  0.66736839
   0.82834147  0.15975718  0.66994875
   0.66118616  0.82847169  0.67143275
   0.82847169  0.66118616  0.67143275
   0.00690982  0.33832453  0.83005125
   0.17041708  0.17041708  0.83469167
   0.33832453  0.00690982  0.83005125
   0.00652949  0.84495616  0.83684515
   0.17094697  0.67074595  0.83328255
   0.33819431  0.50548082  0.82856725
   0.50548082  0.33819431  0.82856725
   0.67074595  0.17094697  0.83328255
   0.84495616  0.00652949  0.83684515
   0.50540264  0.84084643  0.83263161
   0.67448903  0.67448903  0.83206731
   0.84084643  0.50540264  0.83263161
   0.20071732  0.20071732  0.24682225
   0.01681523  0.80139282  0.14631847
   0.80139282  0.01681523  0.14631847
   0.96594968  0.96594968  0.25317773
   0.14985177  0.36527318  0.35368152
   0.36527318  0.14985177  0.35368152
   0.02818459  0.02818459  0.04791554
   0.03701833  0.33266737  0.17514419
   0.33266737  0.03701833  0.17514419
   0.71061834  0.71061834  0.16634485
   0.12964867  0.83399863  0.32485579
   0.45604865  0.45604865  0.33365513
   0.83399863  0.12964867  0.32485579
   0.13848241  0.13848241  0.45208446
 
 position of ions in cartesian coordinates  (Angst):
  -2.91754432  4.53125205 15.57504744
  -0.11297253  3.04313885 15.45113104
   2.69192181  1.42373235 15.45113104
   5.38295155 -0.26104148 15.57504744
  -2.94810177  7.79924640 15.44827973
  -0.13973994  6.20794422 15.46568602
   2.67252093  4.62894204 15.36923180
   5.44610737  2.98295377 15.46568602
   8.22839640  1.34649218 15.44827973
   2.59667798  7.80057287 15.35520559
   5.45715527  6.14907553 15.35520559
  -1.77976870  6.53986767  2.35871341
   1.11520958  5.01736919  2.28653045
   3.78756439  3.47448442  2.28653045
   6.55357589  1.72860893  2.35871341
   0.88134332  8.19922325  2.47379433
   6.66006397  4.86287733  2.47379433
   8.14114687  4.47836225  5.12307023
  -0.19219796  9.28962113  5.12307023
  -0.29869694  6.15535263  5.00798946
   5.48004022  2.81899717  5.00798946
   2.57381915  7.54373600  5.19525334
   5.24615744  6.00086077  5.19525334
   9.09958711  2.85541941  7.69832389
  -2.07692781  9.30818331  7.69832389
   6.26445787  7.61152697  7.69547258
  -2.09457278  6.16872657  7.72182425
   0.69431340  4.50559982  7.79139804
   3.55480721  2.85409295  7.79139804
   6.38956031  1.27041005  7.72182425
   3.45954678  9.23094314  7.69547258
   0.70537782  7.67171205  7.68091761
   3.47895873  6.02573327  7.77737168
   6.29120861  4.44673114  7.68091761
   5.38213248  9.32212691 10.12252565
   8.18828600  4.49581300 10.21986242
  -0.15982592  2.85464239 10.31579478
   2.55210579  1.28890788 10.31579478
  -0.20065473  9.33917019 10.21986242
  -3.01329050  7.73880722 10.34614649
  -0.21974937  6.12071198 10.30587811
   2.58773016  4.48208012 10.31512771
   5.41056675  2.87004745 10.30587811
   8.20864889  1.25981749 10.34614649
   2.58341708  7.71680731 10.29402464
   5.39124262  6.09570847 10.29402464
  -1.99882108  2.96116191 12.95072535
   0.76934725  1.33254853 13.02407783
   3.56385198 -0.25044887 12.95072535
  -4.85228565  7.84532674 12.98107705
  -2.03680619  6.15886231 12.92674106
   0.76022605  4.55896688 12.85257899
   3.56806811  2.93785851 12.85257899
   6.35213431  1.31550525 12.92674106
   9.22039508 -0.27953927 12.98107705
   0.74091844  7.78461837 12.84072552
   3.56374950  6.17259519 12.83147576
   6.37121805  4.53396337 12.84072552
   1.06068114  1.83715363  3.80610322
  -4.34764845  7.67572318  2.16910174
   8.82119549  0.07268758  2.16910174
   5.30069694  9.18107642  3.67568042
  -0.45456477  3.38780056  5.46295026
   3.16120373  1.30023564  5.46295026
   0.14615753  0.25315226  0.74211774
  -1.49343881  3.14332732  2.68805016
   3.46892072  0.27830771  2.68805016
   3.90373256  6.76146313  2.39219545
  -3.30877441  7.92019641  4.94400184
   2.45764545  4.25676679  5.08958819
   8.51347850  1.09461551  4.94400184
   0.67265591  1.16507422  7.04020255
 


--------------------------------------------------------------------------------------------------------


 k-point  1 :  0.00000.00000.0000  plane waves:  19837
 k-point  2 :  0.20000.00000.0000  plane waves:  19849
 k-point  3 :  0.40000.00000.0000  plane waves:  19838
 k-point  4 :  0.20000.20000.0000  plane waves:  19828
 k-point  5 :  0.40000.20000.0000  plane waves:  19823
 k-point  6 :  -.40000.20000.0000  plane waves:  19844
 k-point  7 :  -.20000.20000.0000  plane waves:  19845
 k-point  8 :  0.40000.40000.0000  plane waves:  19814
 k-point  9 :  -.40000.40000.0000  plane waves:  19864
 k-point 10 :  0.00000.00000.3333  plane waves:  19858
 k-point 11 :  0.20000.00000.3333  plane waves:  19837
 k-point 12 :  0.40000.00000.3333  plane waves:  19847
 k-point 13 :  -.40000.00000.3333  plane waves:  19849
 k-point 14 :  -.20000.00000.3333  plane waves:  19839
 k-point 15 :  0.20000.20000.3333  plane waves:  19847
 k-point 16 :  0.40000.20000.3333  plane waves:  19840
 k-point 17 :  -.40000.20000.3333  plane waves:  19852
 k-point 18 :  -.20000.20000.3333  plane waves:  19820
 k-point 19 :  0.40000.40000.3333  plane waves:  19887
 k-point 20 :  -.40000.40000.3333  plane waves:  19847
 k-point 21 :  -.20000.40000.3333  plane waves:  19835
 k-point 22 :  -.4000-.40000.3333  plane waves:  19860
 k-point 23 :  -.2000-.40000.3333  plane waves:  19829
 k-point 24 :  -.2000-.20000.3333  plane waves:  19813

 maximum and minimum number of plane-waves per node :  19887 19813

 maximum number of plane-waves:  19887
 maximal index in each direction: 
   IXMAX= 16   IYMAX= 16   IZMAX= 22
   IXMIN=-16   IYMIN=-16   IZMIN=-22

 WARNING: wrap around error must be expected set NGX to  66
 WARNING: wrap around error must be expected set NGY to  66
 NGZ is ok and might be reduce to  90

 real space projection operators:
  total allocation   :  21270.95 KBytes
  max/ min on nodes  :  21270.95  21270.95


 parallel 3dFFT wavefunction:
    minimum data exchange during FFTs selected (reduces bandwidth)
 parallel 3dFFT charge:
    minimum data exchange during FFTs selected (reduces bandwidth)

 For storing wavefunctions 1340.98 MBYTES are necessary
 For predicting wavefunctions  126.63 MBYTES are necessary
Broyden mixing: mesh for mixing (old mesh)
   NGX = 31   NGY = 31   NGZ = 45
  (NGX  =128   NGY  =128   NGZ  =180)
 gives a total of  43245 points
 initial charge density was supplied:
 charge density of overlapping atoms calculated
 number of electron  276.0000000 magnetization 
 keeping initial charge density in first step


--------------------------------------------------------------------------------------------------------


 Maximum index for non-local projection operator         6725
 Maximum index for augmentation-charges        25355 (set IRDMAX)


--------------------------------------------------------------------------------------------------------


 First call to EWALD:  gamma=   0.149
 Maximum number of real-space cells 3x 3x 2
 Maximum number of reciprocal cells 3x 3x 3

    FEWALD:  VPU time    0.04: CPU time    0.03


----------------------------------------- Iteration    1(   1)  ---------------------------------------


    POTLOK:  VPU time    1.87: CPU time    1.87
    SETDIJ:  VPU time    1.60: CPU time    1.60
    EDDIAG:  VPU time   83.85: CPU time   84.17
  RMM-DIIS:  VPU time  202.42: CPU time  203.31
    ORTHCH:  VPU time    7.12: CPU time    7.14
    DOS   :  VPU time    0.00: CPU time    0.00
    ------------------------------------------
      LOOP:  VPU time  296.87: CPU time  298.12

 eigenvalue-minimisations  :  4224
 total energy-change (2. order) : 0.7472400E+03  (-0.7180697E+04)
 number of electron  276.0000000 magnetization 
 augmentation part   276.0000000 magnetization 

 Free energy of the ion-electron system (eV)
  ---------------------------------------------------
  alpha Z        PSCENC =       311.13746493
  Ewald energy   TEWEN  =     -2159.00477924
  -1/2 Hartree   DENC   =    -17004.38818435
  -V(xc)+E(xc)   XCENC  =       210.82504063
  PAW double counting   =     14045.41448254   -14298.19049423
  entropy T*S    EENTRO =         0.02423176
  eigenvalues    EBANDS =      -556.85457550
  atomic energy  EATOM  =     20198.27682105
  ---------------------------------------------------
  free energy    TOTEN  =       747.24000759 eV

  energy without entropy =      747.21577583  energy(sigma->0) =      747.23193033


--------------------------------------------------------------------------------------------------------




----------------------------------------- Iteration    1(   2)  ---------------------------------------


    EDDIAG:  VPU time   83.55: CPU time   83.91
  RMM-DIIS:  VPU time  202.75: CPU time  203.65
    ORTHCH:  VPU time    7.15: CPU time    7.16
    DOS   :  VPU time    0.00: CPU time    0.00
    ------------------------------------------
      LOOP:  VPU time  293.49: CPU time  294.77

 eigenvalue-minimisations  :  4224
 total energy-change (2. order) :-0.8561931E+03  (-0.1846450E+04)
 number of electron  276.0000000 magnetization 
 augmentation part   276.0000000 magnetization 

 Free energy of the ion-electron system (eV)
  ---------------------------------------------------
  alpha Z        PSCENC =       311.13746493
  Ewald energy   TEWEN  =     -2159.00477924
  -1/2 Hartree   DENC   =    -17004.38818435
  -V(xc)+E(xc)   XCENC  =       210.82504063
  PAW double counting   =     14045.41448254   -14298.19049423
  entropy T*S    EENTRO =         0.00669087
  eigenvalues    EBANDS =     -1413.03012222
  atomic energy  EATOM  =     20198.27682105
  ---------------------------------------------------
  free energy    TOTEN  =      -108.95308002 eV

  energy without entropy =     -108.95977089  energy(sigma->0) =     -108.95531031


--------------------------------------------------------------------------------------------------------




----------------------------------------- Iteration    1(   3)  ---------------------------------------


    EDDIAG:  VPU time   83.24: CPU time   83.60
  RMM-DIIS:  VPU time  202.23: CPU time  203.10
    ORTHCH:  VPU time    7.16: CPU time    7.17
    DOS   :  VPU time    0.00: CPU time    0.00
    ------------------------------------------
      LOOP:  VPU time  292.67: CPU time  293.90

 eigenvalue-minimisations  :  4224
 total energy-change (2. order) : 0.3368737E+02  (-0.3414396E+03)
 number of electron  276.0000000 magnetization 
 augmentation part   276.0000000 magnetization 

 Free energy of the ion-electron system (eV)
  ---------------------------------------------------
  alpha Z        PSCENC =       311.13746493
  Ewald energy   TEWEN  =     -2159.00477924
  -1/2 Hartree   DENC   =    -17004.38818435
  -V(xc)+E(xc)   XCENC  =       210.82504063
  PAW double counting   =     14045.41448254   -14298.19049423
  entropy T*S    EENTRO =        -0.00900461
  eigenvalues    EBANDS =     -1379.32705877
  atomic energy  EATOM  =     20198.27682105
  ---------------------------------------------------
  free energy    TOTEN  =       -75.26571205 eV

  energy without entropy =      -75.25670744  energy(sigma->0) =      -75.26271051


--------------------------------------------------------------------------------------------------------




----------------------------------------- Iteration    1(   4)  ---------------------------------------


    EDDIAG:  VPU time   83.29: CPU time   83.65
  RMM-DIIS:  VPU time  202.72: CPU time  203.64
    ORTHCH:  VPU time    7.12: CPU time    7.13
    DOS   :  VPU time    0.00: CPU time    0.00
    ------------------------------------------
      LOOP:  VPU time  293.16: CPU time  294.46

 eigenvalue-minimisations  :  4224
 total energy-change (2. order) :-0.3762128E+02  (-0.6023317E+02)
 number of electron  276.0000000 magnetization 
 augmentation part   276.0000000 magnetization 

 Free energy of the ion-electron system (eV)
  ---------------------------------------------------
  alpha Z        PSCENC =       311.13746493
  Ewald energy   TEWEN  =     -2159.00477924
  -1/2 Hartree   DENC   =    -17004.38818435
  -V(xc)+E(xc)   XCENC  =       210.82504063
  PAW double counting   =     14045.41448254   -14298.19049423
  entropy T*S    EENTRO =        -0.00855105
  eigenvalues    EBANDS =     -1416.94878922
  atomic energy  EATOM  =     20198.27682105
  ---------------------------------------------------
  free energy    TOTEN  =      -112.88698895 eV

  energy without entropy =     -112.87843789  energy(sigma->0) =     -112.88413860


--------------------------------------------------------------------------------------------------------




----------------------------------------- Iteration    1(   5)  ---------------------------------------


    EDDIAG:  VPU time   83.45: CPU time   83.81
  RMM-DIIS:  VPU time  203.00: CPU time  203.87
    ORTHCH:  VPU time    7.13: CPU time    7.15
    DOS   :  VPU time    0.00: CPU time    0.00
    ------------------------------------------
      LOOP:  VPU time  293.62: CPU time  294.88

 eigenvalue-minimisations  :  4224
 total energy-change (2. order) :-0.1802202E+02  (-0.2003027E+02)
 number of electron  276.0000000 magnetization 
 augmentation part   276.0000000 magnetization 

 Free energy of the ion-electron system (eV)
  ---------------------------------------------------
  alpha Z        PSCENC =       311.13746493
  Ewald energy   TEWEN  =     -2159.00477924
  -1/2 Hartree   DENC   =    -17004.38818435
  -V(xc)+E(xc)   XCENC  =       210.82504063
  PAW double counting   =     14045.41448254   -14298.19049423
  entropy T*S    EENTRO =        -0.00006011
  eigenvalues    EBANDS =     -1434.97929590
  atomic energy  EATOM  =     20198.27682105
  ---------------------------------------------------
  free energy    TOTEN  =      -130.90900468 eV

  energy without entropy =     -130.90894457  energy(sigma->0) =     -130.90898464


--------------------------------------------------------------------------------------------------------




----------------------------------------- Iteration    1(   6)  ---------------------------------------


    EDDIAG:  VPU time   83.44: CPU time   83.82
  RMM-DIIS:  VPU time  202.24: CPU time  203.15
    ORTHCH:  VPU time    7.15: CPU time    7.15
    DOS   :  VPU time    0.00: CPU time    0.00
    ------------------------------------------
      LOOP:  VPU time  292.86: CPU time  294.16

 eigenvalue-minimisations  :  4224
 total energy-change (2. order) :-0.7879099E+01  (-0.9946639E+01)
 number of electron  276.0000000 magnetization 
 augmentation part   276.0000000 magnetization 

 Free energy of the ion-electron system (eV)
  ---------------------------------------------------
  alpha Z        PSCENC =       311.13746493
  Ewald energy   TEWEN  =     -2159.00477924
  -1/2 Hartree   DENC   =    -17004.38818435
  -V(xc)+E(xc)   XCENC  =       210.82504063
  PAW double counting   =     14045.41448254   -14298.19049423
  entropy T*S    EENTRO =         0.00504386
  eigenvalues    EBANDS =     -1442.86349842
  atomic energy  EATOM  =     20198.27682105
  ---------------------------------------------------
  free energy    TOTEN  =      -138.78810324 eV

  energy without entropy =     -138.79314710  energy(sigma->0) =     -138.78978452


--------------------------------------------------------------------------------------------------------




----------------------------------------- Iteration    1(   7)  ---------------------------------------


    EDDIAG:  VPU time   83.26: CPU time   83.60
  RMM-DIIS:  VPU time  202.63: CPU time  203.54
    ORTHCH:  VPU time    7.15: CPU time    7.15
    DOS   :  VPU time    0.00: CPU time    0.00
    ------------------------------------------
      LOOP:  VPU time  293.08: CPU time  294.33

 eigenvalue-minimisations  :  4224
 total energy-change (2. order) :-0.4763622E+01  (-0.5618844E+01)
 number of electron  276.0000000 magnetization 
 augmentation part   276.0000000 magnetization 

 Free energy of the ion-electron system (eV)
  ---------------------------------------------------
  alpha Z        PSCENC =       311.13746493
  Ewald energy   TEWEN  =     -2159.00477924
  -1/2 Hartree   DENC   =    -17004.38818435
  -V(xc)+E(xc)   XCENC  =       210.82504063
  PAW double counting   =     14045.41448254   -14298.19049423
  entropy T*S    EENTRO =         0.00585130
  eigenvalues    EBANDS =     -1447.62792744
  atomic energy  EATOM  =     20198.27682105
  ---------------------------------------------------
  free energy    TOTEN  =      -143.55172482 eV

  energy without entropy =     -143.55757611  energy(sigma->0) =     -143.55367525


--------------------------------------------------------------------------------------------------------




----------------------------------------- Iteration    1(   8)  ---------------------------------------


    EDDIAG:  VPU time   83.41: CPU time   83.78
  RMM-DIIS:  VPU time  202.83: CPU time  203.74
    ORTHCH:  VPU time    7.14: CPU time    7.15
    DOS   :  VPU time    0.00: CPU time    0.00
    ------------------------------------------
      LOOP:  VPU time  293.42: CPU time  294.70

 eigenvalue-minimisations  :  4224
 total energy-change (2. order) :-0.3270911E+01  (-0.3682147E+01)
 number of electron  276.0000000 magnetization 
 augmentation part   276.0000000 magnetization 

 Free energy of the ion-electron system (eV)
  ---------------------------------------------------
  alpha Z        PSCENC =       311.13746493
  Ewald energy   TEWEN  =     -2159.00477924
  -1/2 Hartree   DENC   =    -17004.38818435
  -V(xc)+E(xc)   XCENC  =       210.82504063
  PAW double counting   =     14045.41448254   -14298.19049423
  entropy T*S    EENTRO =         0.00618400
  eigenvalues    EBANDS =     -1450.89917119
  atomic energy  EATOM  =     20198.27682105
  ---------------------------------------------------
  free energy    TOTEN  =      -146.82263586 eV

  energy without entropy =     -146.82881986  energy(sigma->0) =     -146.82469719


--------------------------------------------------------------------------------------------------------




----------------------------------------- Iteration    1(   9)  ---------------------------------------


    EDDIAG:  VPU time   83.27: CPU time   83.60
  RMM-DIIS:  VPU time  569.23: CPU time  571.81
    ORTHCH:  VPU time    7.12: CPU time    7.14
    DOS   :  VPU time    0.00: CPU time    0.00
    ------------------------------------------
      LOOP:  VPU time  659.65: CPU time  662.59

 eigenvalue-minimisations  : 15051
 total energy-change (2. order) :-0.6754148E+01  (-0.6992469E+01)
 number of electron  276.0000000 magnetization 
 augmentation part   276.0000000 magnetization 

 Free energy of the ion-electron system (eV)
  ---------------------------------------------------
  alpha Z        PSCENC =       311.13746493
  Ewald energy   TEWEN  =     -2159.00477924
  -1/2 Hartree   DENC   =    -17004.38818435
  -V(xc)+E(xc)   XCENC  =       210.82504063
  PAW double counting   =     14045.41448254   -14298.19049423
  entropy T*S    EENTRO =         0.00731952
  eigenvalues    EBANDS =     -1457.65445460
  atomic energy  EATOM  =     20198.27682105
  ---------------------------------------------------
  free energy    TOTEN  =      -153.57678376 eV

  energy without entropy =     -153.58410328  energy(sigma->0) =     -153.57922360


--------------------------------------------------------------------------------------------------------




----------------------------------------- Iteration    1(  10)  ---------------------------------------


    EDDIAG:  VPU time   83.32: CPU time   83.67
  RMM-DIIS:  VPU time  585.90: CPU time  588.51
    ORTHCH:  VPU time    7.13: CPU time    7.14
    DOS   :  VPU time    0.00: CPU time    0.00
    ------------------------------------------
      LOOP:  VPU time  676.38: CPU time  679.36

 eigenvalue-minimisations  : 15508
 total energy-change (2. order) :-0.1695792E+01  (-0.1883299E+01)
 number of electron  276.0000000 magnetization 
 augmentation part   276.0000000 magnetization 

 Free energy of the ion-electron system (eV)
  ---------------------------------------------------
  alpha Z        PSCENC =       311.13746493
  Ewald energy   TEWEN  =     -2159.00477924
  -1/2 Hartree   DENC   =    -17004.38818435
  -V(xc)+E(xc)   XCENC  =       210.82504063
  PAW double counting   =     14045.41448254   -14298.19049423
  entropy T*S    EENTRO =         0.00753008
  eigenvalues    EBANDS =     -1459.35045745
  atomic energy  EATOM  =     20198.27682105
  ---------------------------------------------------
  free energy    TOTEN  =      -155.27257605 eV

  energy without entropy =     -155.28010612  energy(sigma->0) =     -155.27508607


--------------------------------------------------------------------------------------------------------




----------------------------------------- Iteration    1(  11)  ---------------------------------------


    EDDIAG:  VPU time   83.79: CPU time   84.13
  RMM-DIIS:  VPU time  584.84: CPU time  587.47
    ORTHCH:  VPU time    7.12: CPU time    7.13
    DOS   :  VPU time    0.00: CPU time    0.00
    ------------------------------------------
      LOOP:  VPU time  675.78: CPU time  678.77

 eigenvalue-minimisations  : 15485
 total energy-change (2. order) :-0.6091512E+00  (-0.6493636E+00)
 number of electron  276.0000000 magnetization 
 augmentation part   276.0000000 magnetization 

 Free energy of the ion-electron system (eV)
  ---------------------------------------------------
  alpha Z        PSCENC =       311.13746493
  Ewald energy   TEWEN  =     -2159.00477924
  -1/2 Hartree   DENC   =    -17004.38818435
  -V(xc)+E(xc)   XCENC  =       210.82504063
  PAW double counting   =     14045.41448254   -14298.19049423
  entropy T*S    EENTRO =         0.00890712
  eigenvalues    EBANDS =     -1459.96098565
  atomic energy  EATOM  =     20198.27682105
  ---------------------------------------------------
  free energy    TOTEN  =      -155.88172720 eV

  energy without entropy =     -155.89063432  energy(sigma->0) =     -155.88469624


--------------------------------------------------------------------------------------------------------




----------------------------------------- Iteration    1(  12)  ---------------------------------------


    EDDIAG:  VPU time   83.53: CPU time   83.87
  RMM-DIIS:  VPU time  584.71: CPU time  587.35
    ORTHCH:  VPU time    7.12: CPU time    7.13
    DOS   :  VPU time    0.00: CPU time    0.00
    CHARGE:  VPU time   44.73: CPU time   44.93
    MIXING:  VPU time    0.05: CPU time    0.05
    ------------------------------------------
      LOOP:  VPU time  720.18: CPU time  723.36

 eigenvalue-minimisations  : 15498
 total energy-change (2. order) :-0.3197419E+00  (-0.3231753E+00)
 number of electron  276.0000004 magnetization 
 augmentation part    64.9032688 magnetization 

 Broyden mixing:
  rms(total) = 0.99862E+00    rms(broyden)= 0.99827E+00
  rms(prec ) = 0.13481E+01
  weight for this iteration     100.00

 Free energy of the ion-electron system (eV)
  ---------------------------------------------------
  alpha Z        PSCENC =       311.13746493
  Ewald energy   TEWEN  =     -2159.00477924
  -1/2 Hartree   DENC   =    -17004.38818435
  -V(xc)+E(xc)   XCENC  =       210.82504063
  PAW double counting   =     14045.41448254   -14298.19049423
  entropy T*S    EENTRO =         0.00961359
  eigenvalues    EBANDS =     -1460.28143406
  atomic energy  EATOM  =     20198.27682105
  ---------------------------------------------------
  free energy    TOTEN  =      -156.20146914 eV

  energy without entropy =     -156.21108273  energy(sigma->0) =     -156.20467367


--------------------------------------------------------------------------------------------------------




----------------------------------------- Iteration    1(  13)  ---------------------------------------


    POTLOK:  VPU time    1.86: CPU time    1.87
    SETDIJ:  VPU time    1.60: CPU time    1.60
    EDDIAG:  VPU time   83.47: CPU time   83.82
  RMM-DIIS:  VPU time  443.26: CPU time  445.24
    ORTHCH:  VPU time    7.12: CPU time    7.14
    DOS   :  VPU time    0.00: CPU time    0.00
    CHARGE:  VPU time   44.75: CPU time   44.96
    MIXING:  VPU time    0.05: CPU time    0.05
    ------------------------------------------
      LOOP:  VPU time  582.15: CPU time  584.72

 eigenvalue-minimisations  : 11354
 total energy-change (2. order) : 0.2697494E+01  (-0.1320003E+01)
 number of electron  276.0000004 magnetization 
 augmentation part    65.3149791 magnetization 

 Broyden mixing:
  rms(total) = 0.53147E+00    rms(broyden)= 0.53143E+00
  rms(prec ) = 0.91360E+00
  weight for this iteration     100.00

 eigenvalues of (default mixing * dielectric matrix)
  average eigenvalue GAMMA=   1.3675
  1.3675

 Free energy of the ion-electron system (eV)
  ---------------------------------------------------
  alpha Z        PSCENC =       311.13746493
  Ewald energy   TEWEN  =     -2159.00477924
  -1/2 Hartree   DENC   =    -16949.82690484
  -V(xc)+E(xc)   XCENC  =       206.57135290
  PAW double counting   =     13989.63999620   -14240.86467070
  entropy T*S    EENTRO =         0.00606360
  eigenvalues    EBANDS =     -1509.43931876
  atomic energy  EATOM  =     20198.27682105
  ---------------------------------------------------
  free energy    TOTEN  =      -153.50397486 eV

  energy without entropy =     -153.51003847  energy(sigma->0) =     -153.50599607


--------------------------------------------------------------------------------------------------------




----------------------------------------- Iteration    1(  14)  ---------------------------------------


    POTLOK:  VPU time    1.86: CPU time    1.87
    SETDIJ:  VPU time    1.61: CPU time    1.61
    EDDIAG:  VPU time   83.43: CPU time   83.78
  RMM-DIIS:  VPU time  510.04: CPU time  512.31
    ORTHCH:  VPU time    7.11: CPU time    7.13
    DOS   :  VPU time    0.00: CPU time    0.00
    CHARGE:  VPU time   45.15: CPU time   45.35
    MIXING:  VPU time    0.05: CPU time    0.05
    ------------------------------------------
      LOOP:  VPU time  649.27: CPU time  652.13

 eigenvalue-minimisations  : 13275
 total energy-change (2. order) : 0.4474291E+00  (-0.4866900E+00)
 number of electron  276.0000004 magnetization 
 augmentation part    65.1327442 magnetization 

 Broyden mixing:
  rms(total) = 0.37052E+00    rms(broyden)= 0.37050E+00
  rms(prec ) = 0.68741E+00
  weight for this iteration     100.00

 eigenvalues of (default mixing * dielectric matrix)
  average eigenvalue GAMMA=   1.0052
  1.4743  0.5361

 Free energy of the ion-electron system (eV)
  ---------------------------------------------------
  alpha Z        PSCENC =       311.13746493
  Ewald energy   TEWEN  =     -2159.00477924
  -1/2 Hartree   DENC   =    -16881.09319928
  -V(xc)+E(xc)   XCENC  =       205.90106159
  PAW double counting   =     13961.17341464   -14219.81705502
  entropy T*S    EENTRO =         0.01492745
  eigenvalues    EBANDS =     -1569.64520190
  atomic energy  EATOM  =     20198.27682105
  ---------------------------------------------------
  free energy    TOTEN  =      -153.05654578 eV

  energy without entropy =     -153.07147323  energy(sigma->0) =     -153.06152160


--------------------------------------------------------------------------------------------------------




----------------------------------------- Iteration    1(  15)  ---------------------------------------


    POTLOK:  VPU time    1.86: CPU time    1.87
    SETDIJ:  VPU time    1.60: CPU time    1.60
    EDDIAG:  VPU time   83.59: CPU time   83.94
  RMM-DIIS:  VPU time  493.65: CPU time  495.82
    ORTHCH:  VPU time    7.14: CPU time    7.16
    DOS   :  VPU time    0.00: CPU time    0.00
    CHARGE:  VPU time   44.99: CPU time   45.17
    MIXING:  VPU time    0.05: CPU time    0.05
    ------------------------------------------
      LOOP:  VPU time  632.92: CPU time  635.66

 eigenvalue-minimisations  : 12830
 total energy-change (2. order) : 0.5198701E+00  (-0.2155197E+00)
 number of electron  276.0000004 magnetization 
 augmentation part    64.8933842 magnetization 

 Broyden mixing:
  rms(total) = 0.20357E+00    rms(broyden)= 0.20356E+00
  rms(prec ) = 0.23666E+00
  weight for this iteration     100.00

 eigenvalues of (default mixing * dielectric matrix)
  average eigenvalue GAMMA=   1.2095
  2.0996  1.0569  0.4719

 Free energy of the ion-electron system (eV)
  ---------------------------------------------------
  alpha Z        PSCENC =       311.13746493
  Ewald energy   TEWEN  =     -2159.00477924
  -1/2 Hartree   DENC   =    -16888.71656612
  -V(xc)+E(xc)   XCENC  =       205.92959225
  PAW double counting   =     14013.88671691   -14279.96574770
  entropy T*S    EENTRO =         0.01649472
  eigenvalues    EBANDS =     -1554.09667244
  atomic energy  EATOM  =     20198.27682105
  ---------------------------------------------------
  free energy    TOTEN  =      -152.53667565 eV

  energy without entropy =     -152.55317037  energy(sigma->0) =     -152.54217389


--------------------------------------------------------------------------------------------------------




----------------------------------------- Iteration    1(  16)  ---------------------------------------


    POTLOK:  VPU time    1.86: CPU time    1.87
    SETDIJ:  VPU time    1.59: CPU time    1.60
    EDDIAG:  VPU time   83.22: CPU time   83.58
  RMM-DIIS:  VPU time  506.61: CPU time  508.89
    ORTHCH:  VPU time    7.12: CPU time    7.13
    DOS   :  VPU time    0.00: CPU time    0.00
    CHARGE:  VPU time   45.07: CPU time   45.27
    MIXING:  VPU time    0.05: CPU time    0.05
    ------------------------------------------
      LOOP:  VPU time  645.55: CPU time  648.42

 eigenvalue-minimisations  : 13168
 total energy-change (2. order) : 0.5501460E-02  (-0.6209661E-01)
 number of electron  276.0000004 magnetization 
 augmentation part    64.7700865 magnetization 

 Broyden mixing:
  rms(total) = 0.12979E+00    rms(broyden)= 0.12977E+00
  rms(prec ) = 0.14704E+00
  weight for this iteration     100.00

 eigenvalues of (default mixing * dielectric matrix)
  average eigenvalue GAMMA=   1.4766
  2.3181  2.3181  0.8504  0.4196

 Free energy of the ion-electron system (eV)
  ---------------------------------------------------
  alpha Z        PSCENC =       311.13746493
  Ewald energy   TEWEN  =     -2159.00477924
  -1/2 Hartree   DENC   =    -16879.64803574
  -V(xc)+E(xc)   XCENC  =       206.36738796
  PAW double counting   =     14038.59318387   -14302.50616566
  entropy T*S    EENTRO =         0.01655152
  eigenvalues    EBANDS =     -1565.76360288
  atomic energy  EATOM  =     20198.27682105
  ---------------------------------------------------
  free energy    TOTEN  =      -152.53117419 eV

  energy without entropy =     -152.54772571  energy(sigma->0) =     -152.53669136


--------------------------------------------------------------------------------------------------------




----------------------------------------- Iteration    1(  17)  ---------------------------------------


    POTLOK:  VPU time    1.86: CPU time    1.87
    SETDIJ:  VPU time    1.59: CPU time    1.61
    EDDIAG:  VPU time   83.48: CPU time   83.82
  RMM-DIIS:  VPU time  493.18: CPU time  495.36
    ORTHCH:  VPU time    7.13: CPU time    7.15
    DOS   :  VPU time    0.00: CPU time    0.00
    CHARGE:  VPU time   44.93: CPU time   45.14
    MIXING:  VPU time    0.05: CPU time    0.05
    ------------------------------------------
      LOOP:  VPU time  632.27: CPU time  635.04

 eigenvalue-minimisations  : 12750
 total energy-change (2. order) : 0.3979165E-03  (-0.2364408E-01)
 number of electron  276.0000004 magnetization 
 augmentation part    64.6558185 magnetization 

 Broyden mixing:
  rms(total) = 0.32858E-01    rms(broyden)= 0.32816E-01
  rms(prec ) = 0.40011E-01
  weight for this iteration     100.00

 eigenvalues of (default mixing * dielectric matrix)
  average eigenvalue GAMMA=   1.3965
  2.6654  1.9673  0.4190  0.7976  1.1331

 Free energy of the ion-electron system (eV)
  ---------------------------------------------------
  alpha Z        PSCENC =       311.13746493
  Ewald energy   TEWEN  =     -2159.00477924
  -1/2 Hartree   DENC   =    -16887.59740407
  -V(xc)+E(xc)   XCENC  =       207.42694826
  PAW double counting   =     14080.77333063   -14341.12323079
  entropy T*S    EENTRO =         0.01669070
  eigenvalues    EBANDS =     -1562.43661773
  atomic energy  EATOM  =     20198.27682105
  ---------------------------------------------------
  free energy    TOTEN  =      -152.53077627 eV

  energy without entropy =     -152.54746697  energy(sigma->0) =     -152.53633984


--------------------------------------------------------------------------------------------------------




----------------------------------------- Iteration    1(  18)  ---------------------------------------


    POTLOK:  VPU time    1.86: CPU time    1.87
    SETDIJ:  VPU time    1.60: CPU time    1.61
    EDDIAG:  VPU time   83.42: CPU time   83.78
  RMM-DIIS:  VPU time  528.73: CPU time  531.08
    ORTHCH:  VPU time    7.14: CPU time    7.14
    DOS   :  VPU time    0.00: CPU time    0.00
    CHARGE:  VPU time   44.84: CPU time   45.04
    MIXING:  VPU time    0.05: CPU time    0.05
    ------------------------------------------
      LOOP:  VPU time  667.67: CPU time  670.61

 eigenvalue-minimisations  : 13745
 total energy-change (2. order) :-0.4198817E-02  (-0.9639057E-02)
 number of electron  276.0000004 magnetization 
 augmentation part    64.5838763 magnetization 

 Broyden mixing:
  rms(total) = 0.23284E-01    rms(broyden)= 0.23261E-01
  rms(prec ) = 0.25262E-01
  weight for this iteration     100.00

 eigenvalues of (default mixing * dielectric matrix)
  average eigenvalue GAMMA=   1.4581
  2.9923  2.2218  1.6288  0.4196  0.8162  0.6700

 Free energy of the ion-electron system (eV)
  ---------------------------------------------------
  alpha Z        PSCENC =       311.13746493
  Ewald energy   TEWEN  =     -2159.00477924
  -1/2 Hartree   DENC   =    -16888.98482518
  -V(xc)+E(xc)   XCENC  =       207.59823501
  PAW double counting   =     14085.46916152   -14345.42046500
  entropy T*S    EENTRO =         0.01664107
  eigenvalues    EBANDS =     -1561.62322924
  atomic energy  EATOM  =     20198.27682105
  ---------------------------------------------------
  free energy    TOTEN  =      -152.53497509 eV

  energy without entropy =     -152.55161616  energy(sigma->0) =     -152.54052211


--------------------------------------------------------------------------------------------------------




----------------------------------------- Iteration    1(  19)  ---------------------------------------


    POTLOK:  VPU time    1.87: CPU time    1.87
    SETDIJ:  VPU time    1.60: CPU time    1.60
    EDDIAG:  VPU time   83.27: CPU time   83.62
  RMM-DIIS:  VPU time  528.19: CPU time  530.51
    ORTHCH:  VPU time    7.13: CPU time    7.14
    DOS   :  VPU time    0.00: CPU time    0.00
    CHARGE:  VPU time   45.06: CPU time   45.27
    MIXING:  VPU time    0.06: CPU time    0.05
    ------------------------------------------
      LOOP:  VPU time  667.21: CPU time  670.10

 eigenvalue-minimisations  : 13643
 total energy-change (2. order) :-0.3590906E-02  (-0.5123801E-02)
 number of electron  276.0000004 magnetization 
 augmentation part    64.5486909 magnetization 

 Broyden mixing:
  rms(total) = 0.14124E-01    rms(broyden)= 0.14108E-01
  rms(prec ) = 0.16079E-01
  weight for this iteration     100.00

 eigenvalues of (default mixing * dielectric matrix)
  average eigenvalue GAMMA=   1.6214
  3.8098  2.7012  1.4274  1.4274  0.4197  0.8387  0.7257

 Free energy of the ion-electron system (eV)
  ---------------------------------------------------
  alpha Z        PSCENC =       311.13746493
  Ewald energy   TEWEN  =     -2159.00477924
  -1/2 Hartree   DENC   =    -16889.58716293
  -V(xc)+E(xc)   XCENC  =       207.67228317
  PAW double counting   =     14086.18095930   -14344.78630799
  entropy T*S    EENTRO =         0.01677120
  eigenvalues    EBANDS =     -1562.44461546
  atomic energy  EATOM  =     20198.27682105
  ---------------------------------------------------
  free energy    TOTEN  =      -152.53856599 eV

  energy without entropy =     -152.55533719  energy(sigma->0) =     -152.54415639


--------------------------------------------------------------------------------------------------------




----------------------------------------- Iteration    1(  20)  ---------------------------------------


    POTLOK:  VPU time    1.86: CPU time    1.87
    SETDIJ:  VPU time    1.60: CPU time    1.61
    EDDIAG:  VPU time   83.17: CPU time   83.51
  RMM-DIIS:  VPU time  530.64: CPU time  532.98
    ORTHCH:  VPU time    7.14: CPU time    7.14
    DOS   :  VPU time    0.00: CPU time    0.00
    CHARGE:  VPU time   45.19: CPU time   45.43
    MIXING:  VPU time    0.06: CPU time    0.06
    ------------------------------------------
      LOOP:  VPU time  669.70: CPU time  672.65

 eigenvalue-minimisations  : 13678
 total energy-change (2. order) :-0.1824230E-02  (-0.2279616E-02)
 number of electron  276.0000004 magnetization 
 augmentation part    64.5252262 magnetization 

 Broyden mixing:
  rms(total) = 0.34071E-02    rms(broyden)= 0.33833E-02
  rms(prec ) = 0.43952E-02
  weight for this iteration     100.00

 eigenvalues of (default mixing * dielectric matrix)
  average eigenvalue GAMMA=   1.5835
  4.0345  2.6834  1.5240  1.5240  0.4197  0.7105  0.8858  0.8858

 Free energy of the ion-electron system (eV)
  ---------------------------------------------------
  alpha Z        PSCENC =       311.13746493
  Ewald energy   TEWEN  =     -2159.00477924
  -1/2 Hartree   DENC   =    -16891.55423832
  -V(xc)+E(xc)   XCENC  =       207.76412975
  PAW double counting   =     14088.40777727   -14345.56547130
  entropy T*S    EENTRO =         0.01674742
  eigenvalues    EBANDS =     -1562.01884179
  atomic energy  EATOM  =     20198.27682105
  ---------------------------------------------------
  free energy    TOTEN  =      -152.54039022 eV

  energy without entropy =     -152.55713765  energy(sigma->0) =     -152.54597270


--------------------------------------------------------------------------------------------------------




----------------------------------------- Iteration    1(  21)  ---------------------------------------


    POTLOK:  VPU time    1.86: CPU time    1.87
    SETDIJ:  VPU time    1.61: CPU time    1.61
    EDDIAG:  VPU time   83.38: CPU time   83.72
  RMM-DIIS:  VPU time  534.66: CPU time  537.00
    ORTHCH:  VPU time    7.11: CPU time    7.13
    DOS   :  VPU time    0.00: CPU time    0.00
    CHARGE:  VPU time   44.83: CPU time   45.02
    MIXING:  VPU time    0.06: CPU time    0.06
    ------------------------------------------
      LOOP:  VPU time  673.53: CPU time  676.45

 eigenvalue-minimisations  : 13771
 total energy-change (2. order) :-0.1085115E-02  (-0.1233811E-02)
 number of electron  276.0000004 magnetization 
 augmentation part    64.5076591 magnetization 

 Broyden mixing:
  rms(total) = 0.31141E-02    rms(broyden)= 0.30961E-02
  rms(prec ) = 0.33531E-02
  weight for this iteration     100.00

 eigenvalues of (default mixing * dielectric matrix)
  average eigenvalue GAMMA=   1.6286
  4.9354  2.6752  1.8056  1.2773  1.2773  0.4197  0.8424  0.7124  0.7124

 Free energy of the ion-electron system (eV)
  ---------------------------------------------------
  alpha Z        PSCENC =       311.13746493
  Ewald energy   TEWEN  =     -2159.00477924
  -1/2 Hartree   DENC   =    -16891.53805145
  -V(xc)+E(xc)   XCENC  =       207.75306489
  PAW double counting   =     14087.86384577   -14344.82013055
  entropy T*S    EENTRO =         0.01675372
  eigenvalues    EBANDS =     -1562.22646444
  atomic energy  EATOM  =     20198.27682105
  ---------------------------------------------------
  free energy    TOTEN  =      -152.54147534 eV

  energy without entropy =     -152.55822905  energy(sigma->0) =     -152.54705991


--------------------------------------------------------------------------------------------------------




----------------------------------------- Iteration    1(  22)  ---------------------------------------


    POTLOK:  VPU time    1.86: CPU time    1.87
    SETDIJ:  VPU time    1.60: CPU time    1.61
    EDDIAG:  VPU time   83.32: CPU time   83.66
  RMM-DIIS:  VPU time  513.26: CPU time  515.51
    ORTHCH:  VPU time    7.14: CPU time    7.15
    DOS   :  VPU time    0.00: CPU time    0.00
    CHARGE:  VPU time   44.79: CPU time   44.98
    MIXING:  VPU time    0.06: CPU time    0.06
    ------------------------------------------
      LOOP:  VPU time  652.06: CPU time  654.87

 eigenvalue-minimisations  : 13142
 total energy-change (2. order) :-0.6173711E-03  (-0.6421783E-03)
 number of electron  276.0000004 magnetization 
[...]
  0.001   0.000   0.022   0.000   0.000   0.001   0.000   0.000
 -0.001   0.000   0.000   0.023   0.001   0.000   0.001   0.000
  0.000   0.000   0.000   0.001   0.021   0.000   0.000   0.001


------------------------ aborting loop because EDIFF is reached ----------------------------------------




--------------------------------------------------------------------------------------------------------


    CHARGE:  VPU time   44.98: CPU time   45.18
    FORLOC:  VPU time    0.58: CPU time    0.59
    FORNL :  VPU time  161.39: CPU time  162.09
    STRESS:  VPU time  471.12: CPU time  473.19
    FORCOR:  VPU time    2.37: CPU time    2.37
    FORHAR:  VPU time    1.03: CPU time    1.03
    MIXING:  VPU time    0.07: CPU time    0.07


--------------------------------------------------------------------------------------------------------



  FREE ENERGIE OF THE ION-ELECTRON SYSTEM (eV)
  ---------------------------------------------------
  free  energy   TOTEN  =      -152.542746 eV

  energy  without entropy=     -152.559542  energy(sigma->0) =     -152.548345
 

  FORCE on cell =-STRESS in cart. coord.  units (eV/reduce length):
  Direction    X        Y        Z        XY       YZ       ZX
  --------------------------------------------------------------------------------------
  Alpha Z    311.14    311.14    311.14
  Ewald     3722.78   3597.63  -9479.47   -108.38    631.28    364.47
  Hartree   9954.52   9849.32  -2911.30    -91.11    572.33    330.43
  E(xc)    -1045.81  -1045.73  -1046.15      0.07     -0.30     -0.17
  Local   -14984.44 -14757.55  11086.01    196.49  -1203.68   -694.94
  n-local   -183.73   -183.13   -182.19     -2.17      7.01      3.85
  augment    357.15    357.99    357.41      0.73     -0.72     -0.41
  Kinetic   1861.98   1875.60   1863.88      1.04     -6.08     -3.59
  -------------------------------------------------------------------------------------
  Total       -0.59     -0.55     -0.67      0.03     -0.28     -0.16
  in kB       -0.56     -0.52     -0.64      0.03     -0.27     -0.15
  external pressure =       -0.57 kB  Pullay stress =        0.00 kB


 VOLUME and BASIS-vectors are now :
 -----------------------------------------------------------------------------
  energy-cutoff  :      300.00
  volume of cell :     1681.52
      direct lattice vectors                 reciprocal lattice vectors
    11.163596918 -0.045303311 -0.150268212     0.089822008  0.052383605  0.002419293
    -5.621032277  9.645306873 -0.150268212     0.000454529  0.103979944  0.002419293
    -0.209898347 -0.363554602 15.664819602     0.000865997  0.001499952  0.063883729

  length of vectors
    11.164700134 11.164700134 15.670443594     0.104009078  0.104009078  0.063907203


 FORCES acting on ions
    electron-ion (+dipol)            ewald-force                    non-local-force                 convergence-correction
 -----------------------------------------------------------------------------------------------
   0.120E+01 0.107E+01 0.844E+02   -.108E+01 -.129E+01 -.840E+02   -.115E+00 0.221E+00 -.393E+00   -.164E-03 0.188E-03 -.657E-03
   -.567E+01 -.341E+02 0.988E+02   0.546E+01 0.337E+02 -.983E+02   0.212E+00 0.471E+00 -.556E+00   0.916E-04 0.878E-03 -.918E-03
   -.267E+02 -.220E+02 0.988E+02   0.264E+02 0.216E+02 -.983E+02   0.302E+00 0.419E+00 -.556E+00   0.714E-03 0.518E-03 -.918E-03
   0.325E+00 0.157E+01 0.844E+02   -.580E+00 -.158E+01 -.840E+02   0.249E+00 0.112E-01 -.393E+00   0.245E-03 -.485E-04 -.657E-03
   -.402E+02 0.209E+02 0.115E+03   0.398E+02 -.203E+02 -.114E+03   0.452E+00 -.518E+00 -.679E+00   0.555E-03 -.634E-03 -.777E-03
   0.192E+01 0.333E+01 0.732E+02   -.189E+01 -.328E+01 -.733E+02   -.157E-01 -.381E-01 0.156E+00   0.450E-04 0.252E-04 -.503E-03
   0.630E+01 0.109E+02 0.828E+02   -.608E+01 -.105E+02 -.822E+02   -.217E+00 -.377E+00 -.636E+00   -.161E-04 -.280E-04 -.552E-03
   0.192E+01 0.332E+01 0.732E+02   -.189E+01 -.328E+01 -.733E+02   -.252E-01 -.326E-01 0.156E+00   -.656E-06 0.516E-04 -.503E-03
   0.382E+02 -.244E+02 0.115E+03   -.375E+02 0.243E+02 -.114E+03   -.675E+00 0.133E+00 -.679E+00   -.826E-03 0.164E-03 -.777E-03
   0.411E+02 0.269E+02 0.117E+03   -.405E+02 -.268E+02 -.116E+03   -.613E+00 -.107E+00 -.835E+00   -.715E-03 -.302E-03 -.599E-03
   0.274E+01 0.490E+02 0.117E+03   -.295E+01 -.484E+02 -.116E+03   0.214E+00 -.584E+00 -.835E+00   0.957E-04 -.771E-03 -.599E-03
   -.435E+02 0.245E+02 0.548E+02   0.429E+02 -.240E+02 -.544E+02   0.560E+00 -.409E+00 -.394E+00   0.135E-03 -.105E-03 -.499E-03
   0.445E+01 -.364E+02 0.754E+02   -.377E+01 0.367E+02 -.750E+02   -.663E+00 -.284E+00 -.424E+00   0.198E-03 0.397E-03 -.375E-03
   -.337E+02 -.143E+02 0.754E+02   0.337E+02 0.151E+02 -.750E+02   0.853E-01 -.716E+00 -.424E+00   0.245E-03 0.370E-03 -.375E-03
   0.429E+02 -.254E+02 0.548E+02   -.423E+02 0.251E+02 -.544E+02   -.634E+00 0.280E+00 -.394E+00   -.159E-03 0.643E-04 -.499E-03
   0.390E+02 0.264E+02 0.357E+02   -.385E+02 -.261E+02 -.359E+02   -.496E+00 -.256E+00 0.173E+00   0.637E-04 -.187E-03 -.345E-03
   0.335E+01 0.470E+02 0.357E+02   -.336E+01 -.465E+02 -.359E+02   0.264E-01 -.558E+00 0.173E+00   -.194E-03 -.384E-04 -.345E-03
   0.435E+02 -.245E+02 -.548E+02   -.429E+02 0.240E+02 0.544E+02   -.560E+00 0.409E+00 0.394E+00   -.135E-03 0.105E-03 0.499E-03
   -.429E+02 0.254E+02 -.548E+02   0.423E+02 -.251E+02 0.544E+02   0.634E+00 -.280E+00 0.394E+00   0.159E-03 -.642E-04 0.499E-03
   -.335E+01 -.470E+02 -.357E+02   0.336E+01 0.465E+02 0.359E+02   -.264E-01 0.558E+00 -.173E+00   0.194E-03 0.381E-04 0.345E-03
   -.390E+02 -.264E+02 -.357E+02   0.385E+02 0.261E+02 0.359E+02   0.496E+00 0.256E+00 -.173E+00   -.639E-04 0.187E-03 0.345E-03
   0.337E+02 0.143E+02 -.754E+02   -.337E+02 -.151E+02 0.750E+02   -.853E-01 0.716E+00 0.424E+00   -.245E-03 -.370E-03 0.375E-03
   -.445E+01 0.364E+02 -.754E+02   0.377E+01 -.367E+02 0.750E+02   0.663E+00 0.284E+00 0.424E+00   -.198E-03 -.397E-03 0.375E-03
   0.402E+02 -.209E+02 -.115E+03   -.398E+02 0.203E+02 0.114E+03   -.452E+00 0.518E+00 0.679E+00   -.555E-03 0.634E-03 0.777E-03
   -.382E+02 0.244E+02 -.115E+03   0.375E+02 -.243E+02 0.114E+03   0.675E+00 -.133E+00 0.679E+00   0.827E-03 -.164E-03 0.777E-03
   0.567E+01 0.341E+02 -.988E+02   -.546E+01 -.337E+02 0.983E+02   -.212E+00 -.471E+00 0.556E+00   -.914E-04 -.878E-03 0.918E-03
   -.120E+01 -.107E+01 -.844E+02   0.108E+01 0.129E+01 0.840E+02   0.115E+00 -.221E+00 0.393E+00   0.165E-03 -.188E-03 0.657E-03
   -.274E+01 -.490E+02 -.117E+03   0.295E+01 0.484E+02 0.116E+03   -.214E+00 0.584E+00 0.835E+00   -.958E-04 0.771E-03 0.599E-03
   -.411E+02 -.269E+02 -.117E+03   0.405E+02 0.268E+02 0.116E+03   0.613E+00 0.107E+00 0.835E+00   0.715E-03 0.302E-03 0.599E-03
   -.325E+00 -.157E+01 -.844E+02   0.580E+00 0.158E+01 0.840E+02   -.249E+00 -.112E-01 0.393E+00   -.245E-03 0.486E-04 0.657E-03
   0.267E+02 0.220E+02 -.988E+02   -.264E+02 -.216E+02 0.983E+02   -.302E+00 -.419E+00 0.556E+00   -.715E-03 -.518E-03 0.918E-03
   -.192E+01 -.333E+01 -.732E+02   0.189E+01 0.328E+01 0.733E+02   0.252E-01 0.326E-01 -.156E+00   0.434E-06 -.517E-04 0.503E-03
   -.630E+01 -.109E+02 -.828E+02   0.608E+01 0.105E+02 0.822E+02   0.217E+00 0.377E+00 0.636E+00   0.160E-04 0.276E-04 0.552E-03
   -.192E+01 -.333E+01 -.732E+02   0.189E+01 0.328E+01 0.733E+02   0.157E-01 0.381E-01 -.156E+00   -.450E-04 -.255E-04 0.503E-03
   0.461E+01 0.799E+01 -.441E+02   -.455E+01 -.788E+01 0.438E+02   -.679E-01 -.118E+00 0.320E+00   -.163E-03 -.282E-03 0.681E-03
   0.351E+01 -.303E+01 -.323E+02   -.346E+01 0.298E+01 0.324E+02   -.462E-01 0.560E-01 -.283E-01   -.448E-04 0.464E-04 0.220E-03
   0.484E+01 -.102E+02 -.511E+02   -.475E+01 0.101E+02 0.508E+02   -.859E-01 0.101E+00 0.299E+00   -.165E-03 0.379E-03 0.694E-03
   -.112E+02 -.901E+00 -.511E+02   0.111E+02 0.925E+00 0.508E+02   0.131E+00 -.238E-01 0.299E+00   0.411E-03 0.464E-04 0.694E-03
   -.438E+01 0.152E+01 -.323E+02   0.431E+01 -.151E+01 0.324E+02   0.716E-01 -.120E-01 -.283E-01   0.626E-04 -.156E-04 0.220E-03
   -.516E+01 0.664E+01 -.337E+02   0.511E+01 -.668E+01 0.337E+02   0.562E-01 0.395E-01 0.469E-01   0.140E-03 -.179E-03 0.330E-03
   0.775E-01 -.572E+01 -.332E+02   -.210E-01 0.563E+01 0.331E+02   -.493E-01 0.891E-01 0.105E+00   -.372E-05 0.641E-04 0.200E-03
   -.475E+01 -.823E+01 -.379E+02   0.475E+01 0.822E+01 0.379E+02   0.284E-02 0.492E-02 -.102E-01   0.992E-04 0.172E-03 0.306E-03
   -.500E+01 -.279E+01 -.332E+02   0.489E+01 0.280E+01 0.331E+02   0.102E+00 0.183E-02 0.105E+00   0.574E-04 0.288E-04 0.200E-03
   0.833E+01 -.115E+01 -.337E+02   -.834E+01 0.108E+01 0.337E+02   0.605E-02 0.684E-01 0.469E-01   -.226E-03 0.319E-04 0.330E-03
   0.401E+01 0.158E+01 -.279E+02   -.392E+01 -.146E+01 0.278E+02   -.926E-01 -.120E+00 0.948E-01   -.975E-04 -.627E-04 0.187E-03
   -.636E+00 0.427E+01 -.279E+02   0.698E+00 -.413E+01 0.278E+02   -.578E-01 -.140E+00 0.948E-01   -.552E-05 -.116E-03 0.187E-03
   0.516E+01 -.664E+01 0.337E+02   -.511E+01 0.668E+01 -.337E+02   -.562E-01 -.395E-01 -.469E-01   -.140E-03 0.179E-03 -.329E-03
   -.461E+01 -.799E+01 0.441E+02   0.455E+01 0.788E+01 -.438E+02   0.679E-01 0.118E+00 -.320E+00   0.163E-03 0.282E-03 -.681E-03
   -.833E+01 0.115E+01 0.337E+02   0.834E+01 -.108E+01 -.337E+02   -.605E-02 -.684E-01 -.469E-01   0.225E-03 -.318E-04 -.329E-03
   -.484E+01 0.102E+02 0.511E+02   0.475E+01 -.101E+02 -.508E+02   0.859E-01 -.101E+00 -.299E+00   0.166E-03 -.379E-03 -.694E-03
   -.351E+01 0.303E+01 0.323E+02   0.346E+01 -.298E+01 -.324E+02   0.462E-01 -.560E-01 0.283E-01   0.449E-04 -.464E-04 -.220E-03
   0.636E+00 -.427E+01 0.279E+02   -.698E+00 0.413E+01 -.278E+02   0.578E-01 0.140E+00 -.948E-01   0.556E-05 0.116E-03 -.186E-03
   -.401E+01 -.158E+01 0.279E+02   0.392E+01 0.146E+01 -.278E+02   0.926E-01 0.120E+00 -.948E-01   0.973E-04 0.626E-04 -.186E-03
   0.438E+01 -.152E+01 0.323E+02   -.431E+01 0.151E+01 -.324E+02   -.716E-01 0.120E-01 0.283E-01   -.627E-04 0.157E-04 -.220E-03
   0.112E+02 0.901E+00 0.511E+02   -.111E+02 -.925E+00 -.508E+02   -.131E+00 0.238E-01 -.299E+00   -.411E-03 -.462E-04 -.694E-03
   0.500E+01 0.279E+01 0.332E+02   -.489E+01 -.280E+01 -.331E+02   -.102E+00 -.183E-02 -.105E+00   -.575E-04 -.289E-04 -.200E-03
   0.475E+01 0.823E+01 0.379E+02   -.475E+01 -.822E+01 -.379E+02   -.284E-02 -.492E-02 0.102E-01   -.993E-04 -.172E-03 -.306E-03
   -.776E-01 0.572E+01 0.332E+02   0.211E-01 -.563E+01 -.331E+02   0.493E-01 -.891E-01 -.105E+00   0.373E-05 -.642E-04 -.200E-03
   -.163E+03 -.283E+03 0.273E+03   0.164E+03 0.284E+03 -.275E+03   -.589E+00 -.102E+01 0.154E+01   0.203E-02 0.351E-02 0.335E-03
   -.233E+03 0.464E+03 0.488E+03   0.233E+03 -.463E+03 -.488E+03   0.546E+00 -.155E+01 -.872E+00   0.936E-03 -.642E-02 -.862E-03
   0.519E+03 0.302E+02 0.488E+03   -.517E+03 -.299E+02 -.488E+03   -.162E+01 -.303E+00 -.872E+00   -.603E-02 -.240E-02 -.862E-03
   0.163E+03 0.283E+03 -.273E+03   -.164E+03 -.284E+03 0.275E+03   0.589E+00 0.102E+01 -.154E+01   -.203E-02 -.351E-02 -.336E-03
   0.233E+03 -.464E+03 -.488E+03   -.233E+03 0.463E+03 0.488E+03   -.546E+00 0.155E+01 0.872E+00   -.937E-03 0.643E-02 0.860E-03
   -.519E+03 -.302E+02 -.488E+03   0.517E+03 0.299E+02 0.488E+03   0.162E+01 0.303E+00 0.872E+00   0.603E-02 0.240E-02 0.860E-03
   -.515E+02 -.892E+02 0.829E+03   0.513E+02 0.888E+02 -.828E+03   0.216E+00 0.373E+00 -.129E+01   -.790E-03 -.137E-02 -.293E-03
   0.223E+03 -.377E+03 0.433E+03   -.223E+03 0.376E+03 -.432E+03   -.486E-01 0.103E+01 -.640E-01   -.148E-02 0.220E-03 0.799E-03
   -.438E+03 0.483E+01 0.433E+03   0.437E+03 -.531E+01 -.432E+03   0.917E+00 0.473E+00 -.640E-01   0.932E-03 -.117E-02 0.799E-03
   0.218E+03 0.378E+03 0.236E+03   -.218E+03 -.377E+03 -.236E+03   -.260E+00 -.451E+00 -.727E-01   -.498E-03 -.862E-03 -.281E-03
   -.223E+03 0.377E+03 -.433E+03   0.223E+03 -.376E+03 0.432E+03   0.486E-01 -.103E+01 0.640E-01   0.148E-02 -.220E-03 -.799E-03
   -.218E+03 -.378E+03 -.236E+03   0.218E+03 0.377E+03 0.236E+03   0.260E+00 0.451E+00 0.727E-01   0.497E-03 0.861E-03 0.280E-03
   0.438E+03 -.483E+01 -.433E+03   -.437E+03 0.531E+01 0.432E+03   -.917E+00 -.473E+00 0.640E-01   -.933E-03 0.118E-02 -.799E-03
   0.515E+02 0.892E+02 -.829E+03   -.513E+02 -.888E+02 0.828E+03   -.216E+00 -.373E+00 0.129E+01   0.790E-03 0.137E-02 0.292E-03
 -----------------------------------------------------------------------------------------------
   0.410E-02 0.710E-02 0.245E-03   -.426E-13 -.114E-12 0.227E-12   -.250E-15 -.133E-14 0.666E-15   0.293E-05 0.507E-05 -.678E-05
 
 
 POSITION                                       TOTAL-FORCE (eV/Angst)
 -----------------------------------------------------------------------------------
     -2.91754      4.53125     15.57505         0.007120     -0.002471     -0.002425
     -0.11297      3.04314     15.45113         0.000555      0.009389      0.004166
      2.69192      1.42373     15.45113         0.007854      0.005175      0.004166
      5.38295     -0.26104     15.57505        -0.005700      0.004931     -0.002425
     -2.94810      7.79925     15.44828         0.001736      0.017996     -0.003686
     -0.13974      6.20794     15.46569         0.007234      0.010297      0.014121
      2.67252      4.62894     15.36923        -0.000243     -0.000421     -0.007446
      5.44611      2.98295     15.46569         0.005300      0.011414      0.014121
      8.22840      1.34649     15.44828         0.014717      0.010501     -0.003686
      2.59668      7.80057     15.35521         0.005203      0.014235      0.007047
      5.45716      6.14908     15.35521         0.009726      0.011624      0.007047
     -1.77977      6.53987      2.35871         0.004175      0.001641     -0.006527
      1.11521      5.01737      2.28653         0.011967      0.001892     -0.000066
      3.78756      3.47448      2.28653        -0.004345      0.011310     -0.000066
      6.55358      1.72861      2.35871        -0.000666      0.004436     -0.006527
      0.88134      8.19922      2.47379         0.002733      0.012496      0.001914
      6.66006      4.86288      2.47379         0.009455      0.008614      0.001914
      8.14115      4.47836      5.12307        -0.004175     -0.001641      0.006527
     -0.19220      9.28962      5.12307         0.000666     -0.004436      0.006527
     -0.29870      6.15535      5.00799        -0.009455     -0.008614     -0.001914
      5.48004      2.81900      5.00799        -0.002733     -0.012496     -0.001914
      2.57382      7.54374      5.19525         0.004345     -0.011310      0.000066
      5.24616      6.00086      5.19525        -0.011967     -0.001892      0.000066
      9.09959      2.85542      7.69832        -0.001736     -0.017996      0.003686
     -2.07693      9.30818      7.69832        -0.014717     -0.010501      0.003686
      6.26446      7.61153      7.69547        -0.000555     -0.009389     -0.004166
     -2.09457      6.16873      7.72182        -0.007120      0.002471      0.002425
      0.69431      4.50560      7.79140        -0.009726     -0.011624     -0.007047
      3.55481      2.85409      7.79140        -0.005203     -0.014235     -0.007047
      6.38956      1.27041      7.72182         0.005700     -0.004931      0.002425
      3.45955      9.23094      7.69547        -0.007854     -0.005175     -0.004166
      0.70538      7.67171      7.68092        -0.005300     -0.011414     -0.014121
      3.47896      6.02573      7.77737         0.000243      0.000421      0.007446
      6.29121      4.44673      7.68092        -0.007234     -0.010297     -0.014121
      5.38213      9.32213     10.12253        -0.003358     -0.005816     -0.009942
      8.18829      4.49581     10.21986        -0.004527      0.002834     -0.001303
     -0.15983      2.85464     10.31579         0.002363     -0.004672     -0.004951
      2.55211      1.28891     10.31579        -0.005228     -0.000290     -0.004951
     -0.20065      9.33917     10.21986         0.004718     -0.002503     -0.001303
     -3.01329      7.73881     10.34615         0.001765     -0.001231      0.004516
     -0.21975      6.12071     10.30588         0.007199     -0.002718     -0.001181
      2.58773      4.48208     10.31513        -0.000391     -0.000677      0.010757
      5.41057      2.87005     10.30588        -0.005953      0.004875     -0.001181
      8.20865      1.25982     10.34615        -0.001949      0.000913      0.004516
      2.58342      7.71681     10.29402        -0.002496      0.003231     -0.000971
      5.39124      6.09571     10.29402         0.004046     -0.000546     -0.000971
     -1.99882      2.96116     12.95073        -0.001765      0.001231     -0.004516
      0.76935      1.33255     13.02408         0.003358      0.005816      0.009942
      3.56385     -0.25045     12.95073         0.001949     -0.000913     -0.004516
     -4.85229      7.84533     12.98108        -0.002363      0.004672      0.004951
     -2.03681      6.15886     12.92674         0.004527     -0.002834      0.001303
      0.76023      4.55897     12.85258        -0.004046      0.000546      0.000971
      3.56807      2.93786     12.85258         0.002496     -0.003231      0.000971
      6.35213      1.31551     12.92674        -0.004718      0.002503      0.001303
      9.22040     -0.27954     12.98108         0.005228      0.000290      0.004951
      0.74092      7.78462     12.84073         0.005953     -0.004875      0.001181
      3.56375      6.17260     12.83148         0.000391      0.000677     -0.010757
      6.37122      4.53396     12.84073        -0.007199      0.002718      0.001181
      1.06068      1.83715      3.80610        -0.000327     -0.000566      0.005285
     -4.34765      7.67572      2.16910         0.018790      0.005118      0.001049
      8.82120      0.07269      2.16910        -0.004962      0.018831      0.001049
      5.30070      9.18108      3.67568         0.000327      0.000566     -0.005285
     -0.45456      3.38780      5.46295        -0.018790     -0.005118     -0.001049
      3.16120      1.30024      5.46295         0.004962     -0.018831     -0.001049
      0.14616      0.25315      0.74212         0.002592      0.004489      0.016548
     -1.49344      3.14333      2.68805        -0.004301      0.001089      0.000243
      3.46892      0.27831      2.68805         0.003094     -0.003180      0.000243
      3.90373      6.76146      2.39220        -0.005175     -0.008964      0.005847
     -3.30877      7.92020      4.94400         0.004301     -0.001089     -0.000243
      2.45765      4.25677      5.08959         0.005175      0.008964     -0.005847
      8.51348      1.09462      4.94400        -0.003094      0.003180     -0.000243
      0.67266      1.16507      7.04020        -0.002592     -0.004489     -0.016548
 -----------------------------------------------------------------------------------
    total drift:                                0.004105      0.007110      0.000238


--------------------------------------------------------------------------------------------------------




--------------------------------------------------------------------------------------------------------


  
 reached required accuracy - stopping structural energy minimisation
     LOOP+:  VPU time16061.07: CPU time16134.23
  
  
 General timing and accounting informations for this job:
 ========================================================
  
                  Total CPU time used (sec):    16137.289
                            User time (sec):    15473.335
                          System time (sec):      663.953
                         Elapsed time (sec):    16215.346
  
                   Maximum memory used (kb):           0.
                   Average memory used (kb):           0.
  
                          Minor page faults:    119481516
                          Major page faults:            0
                 Voluntary context switches:         1730
