 vasp.4.6.28 25Jul05 complex 
 executed on             LinuxIFC date 2018.10.08  13:09:53
 running on    8 nodes
 distr:  one band on    1 nodes,    8 groups


--------------------------------------------------------------------------------------------------------


 INCAR:
 POTCAR:   PAW_PBE Mg 05Jan2001                   
 POTCAR:   PAW_PBE Zn 06Sep2000                   
 POTCAR:   PAW_PBE Y_sv 06Sep2000                 
 POTCAR:   PAW_PBE Mg 05Jan2001                   
   VRHFIN =Mg: s2p0                                                             
   LEXCH  = PE                                                                  
   EATOM  =    23.0029 eV,    1.6907 Ry                                         
                                                                                
   TITEL  = PAW_PBE Mg 05Jan2001                                                
   LULTRA =        F    use ultrasoft PP ?                                      
   IUNSCR =        1    unscreen: 0-lin 1-nonlin 2-no                           
   RPACOR =    2.000    partial core radius                                     
   POMASS =   24.305; ZVAL   =    2.000    mass and valenz                      
   RCORE  =    2.000    outmost cutoff radius                                   
   RWIGS  =    2.880; RWIGS  =    1.524    wigner-seitz radius (au A)           
   ENMAX  =  210.012; ENMIN  =  157.509 eV                                      
   ICORE  =        2    local potential                                         
   LCOR   =        T    correct aug charges                                     
   LPAW   =        T    paw PP                                                  
   EAUG   =  274.554                                                            
   DEXC   =    -.136                                                            
   RMAX   =    3.182    core radius for proj-oper                               
   RAUG   =    1.300    factor for augmentation sphere                          
   RDEP   =    2.025    radius for radial grids                                 
   QCUT   =   -3.929; QGAM   =    7.858    optimization parameters              
                                                                                
   Description                                                                  
     l     E      TYP  RCUT    TYP  RCUT                                        
     0   .000     23  2.000                                                     
     0  2.000     23  2.000                                                     
     1   .000     23  2.000                                                     
     1  2.000     23  2.000                                                     
     2   .000     23  2.000                                                     
  local pseudopotential read in
  partial core-charges read in
  atomic valenz-charges read in
  non local Contribution for L=           0  read in
    real space projection operators read in
  non local Contribution for L=           0  read in
    real space projection operators read in
  non local Contribution for L=           1  read in
    real space projection operators read in
  non local Contribution for L=           1  read in
    real space projection operators read in
    PAW grid and wavefunctions read in
 
   number of l-projection  operators is LMAX  =           4
   number of lm-projection operators is LMMAX =           8
 
 POTCAR:   PAW_PBE Zn 06Sep2000                   
   VRHFIN =Zn: d10 p2                                                           
   LEXCH  = PE                                                                  
   EATOM  =  1749.0928 eV,  128.5547 Ry                                         
                                                                                
   TITEL  = PAW_PBE Zn 06Sep2000                                                
   LULTRA =        F    use ultrasoft PP ?                                      
   IUNSCR =        1    unscreen: 0-lin 1-nonlin 2-no                           
   RPACOR =    2.000    partial core radius                                     
   POMASS =   65.390; ZVAL   =   12.000    mass and valenz                      
   RCORE  =    2.300    outmost cutoff radius                                   
   RWIGS  =    2.400; RWIGS  =    1.270    wigner-seitz radius (au A)           
   ENMAX  =  276.727; ENMIN  =  207.545 eV                                      
   RCLOC  =    1.828    cutoff for local pot                                    
   LCOR   =        T    correct aug charges                                     
   LPAW   =        T    paw PP                                                  
   EAUG   =  575.892                                                            
   DEXC   =    -.003                                                            
   RMAX   =    2.772    core radius for proj-oper                               
   RAUG   =    1.300    factor for augmentation sphere                          
   RDEP   =    2.324    radius for radial grids                                 
   QCUT   =   -4.510; QGAM   =    9.020    optimization parameters              
                                                                                
   Description                                                                  
     l     E      TYP  RCUT    TYP  RCUT                                        
     2   .000     23  2.300                                                     
     2   .000     23  2.300                                                     
     0   .000     23  2.300                                                     
     0   .000     23  2.300                                                     
     1  -.200     23  2.300                                                     
     1   .000     23  2.300                                                     
     3   .000      7   .000                                                     
  local pseudopotential read in
  partial core-charges read in
  atomic valenz-charges read in
  non local Contribution for L=           2  read in
    real space projection operators read in
  non local Contribution for L=           2  read in
    real space projection operators read in
  non local Contribution for L=           0  read in
    real space projection operators read in
  non local Contribution for L=           0  read in
    real space projection operators read in
  non local Contribution for L=           1  read in
    real space projection operators read in
  non local Contribution for L=           1  read in
    real space projection operators read in
    PAW grid and wavefunctions read in
 
   number of l-projection  operators is LMAX  =           6
   number of lm-projection operators is LMMAX =          18
 
 POTCAR:   PAW_PBE Y_sv 06Sep2000                 
   VRHFIN =Y: 4s4p5s4d                                                          
   LEXCH  = PE                                                                  
   EATOM  =  1046.2256 eV,   76.8954 Ry                                         
                                                                                
   TITEL  = PAW_PBE Y_sv 06Sep2000                                              
   LULTRA =        F    use ultrasoft PP ?                                      
   IUNSCR =        1    unscreen: 0-lin 1-nonlin 2-no                           
   RPACOR =    2.200    partial core radius                                     
   POMASS =   88.906; ZVAL   =   11.000    mass and valenz                      
   RCORE  =    2.600    outmost cutoff radius                                   
   RWIGS  =    3.430; RWIGS  =    1.815    wigner-seitz radius (au A)           
   ENMAX  =  211.641; ENMIN  =  158.731 eV                                      
   RCLOC  =    2.212    cutoff for local pot                                    
   LCOR   =        T    correct aug charges                                     
   LPAW   =        T    paw PP                                                  
   EAUG   =  363.258                                                            
   DEXC   =     .000                                                            
   RMAX   =    3.169    core radius for proj-oper                               
   RAUG   =    1.300    factor for augmentation sphere                          
   RDEP   =    2.745    radius for radial grids                                 
   QCUT   =   -3.944; QGAM   =    7.888    optimization parameters              
                                                                                
   Description                                                                  
     l     E      TYP  RCUT    TYP  RCUT                                        
     0   .000     23  2.600                                                     
     0   .000     23  2.600                                                     
     1   .000     23  2.600                                                     
     1   .000     23  2.600                                                     
     2   .000     23  2.600                                                     
     2   .000     23  2.600                                                     
     3   .000      7   .000                                                     
  local pseudopotential read in
  partial core-charges read in
  atomic valenz-charges read in
  non local Contribution for L=           0  read in
    real space projection operators read in
  non local Contribution for L=           0  read in
    real space projection operators read in
  non local Contribution for L=           1  read in
    real space projection operators read in
  non local Contribution for L=           1  read in
    real space projection operators read in
  non local Contribution for L=           2  read in
    real space projection operators read in
  non local Contribution for L=           2  read in
    real space projection operators read in
    PAW grid and wavefunctions read in
 
   number of l-projection  operators is LMAX  =           6
   number of lm-projection operators is LMMAX =          18
 
 Optimization of the real space projectors (new method)

 maximal supplied QI-value         = 18.90
 optimisation between [QCUT,QGAM] = [  8.69, 17.57] = [ 21.16, 86.49] Ry 
 Optimized for a Real-space Cutoff    1.50 Angstroem

   l    n(q)    QCUT    max X(q) W(low)/X(q) W(high)/X(q)  e(spline) 
   0      8     8.693    21.263    0.25E-04    0.57E-05    0.11E-07
   0      8     8.693    32.896    0.17E-03    0.18E-03    0.83E-07
   1      7     8.693    18.024    0.20E-04    0.82E-04    0.23E-07
   1      7     8.693    48.877    0.92E-04    0.21E-03    0.19E-06
 Optimization of the real space projectors (new method)

 maximal supplied QI-value         = 16.25
 optimisation between [QCUT,QGAM] = [  8.78, 17.71] = [ 21.57, 87.87] Ry 
 Optimized for a Real-space Cutoff    1.55 Angstroem

   l    n(q)    QCUT    max X(q) W(low)/X(q) W(high)/X(q)  e(spline) 
   2      7     8.776     5.523    0.25E-04    0.61E-04    0.37E-07
   2      7     8.776     9.671    0.20E-03    0.41E-03    0.27E-06
   0      8     8.776    11.246    0.21E-04    0.15E-05    0.57E-08
   0      8     8.776    34.692    0.16E-03    0.15E-03    0.68E-07
   1      8     8.776     4.877    0.32E-04    0.71E-04    0.29E-07
   1      8     8.776     6.599    0.91E-04    0.23E-03    0.83E-07
 Optimization of the real space projectors (new method)

 maximal supplied QI-value         = 14.36
 optimisation between [QCUT,QGAM] = [  8.76, 17.67] = [ 21.49, 87.39] Ry 
 Optimized for a Real-space Cutoff    1.96 Angstroem

   l    n(q)    QCUT    max X(q) W(low)/X(q) W(high)/X(q)  e(spline) 
   0     10     8.761     8.406    0.17E-04    0.25E-05    0.14E-07
   0     10     8.761    10.301    0.37E-04    0.12E-04    0.59E-07
   1     10     8.761     4.485    0.11E-05    0.41E-05    0.34E-07
   1     10     8.761    11.894    0.99E-05    0.55E-04    0.20E-06
   2      9     8.761     4.489    0.16E-04    0.99E-05    0.66E-07
   2      9     8.761    42.100    0.20E-03    0.66E-04    0.63E-06
 PAW_PBE Mg 05Jan2001                   :
 energy of atom  1       EATOM=  -23.0029
 kinetic energy error for atom=    0.0002 (will be added to EATOM!!)
 PAW_PBE Zn 06Sep2000                   :
 energy of atom  2       EATOM=-1749.0928
 kinetic energy error for atom=    0.0293 (will be added to EATOM!!)
 PAW_PBE Y_sv 06Sep2000                 :
 energy of atom  3       EATOM=-1046.2256
 kinetic energy error for atom=    0.0083 (will be added to EATOM!!)
 
 EXHCAR: internal setup
 exchange correlation table for  LEXCH =        8
   RHO(1)=    0.500       N(1)  =     2000
   RHO(2)=  100.500       N(2)  =     4000
 
 POSCAR: New structure                           
  positions in direct lattice
  velocities in cartesian coordinates
 


--------------------------------------------------------------------------------------------------------


 ion  position               nearest neighbor table
   1  0.000  0.165  0.999-  14 3.17  21 3.17  12 3.17   2 3.17   5 3.20   7 3.20 192 3.21 185 3.22
                           184 3.22   4 3.25  11 3.25 205 3.57
   2  0.165  0.000  0.999-  15 3.17  17 3.17  12 3.17   1 3.17   5 3.20   3 3.20 187 3.21 185 3.22
                           186 3.22   6 3.25   8 3.25 205 3.57
   3  0.000  0.668  0.998-  23 3.14  17 3.14 187 3.17 188 3.18 195 3.18  11 3.19   4 3.19  12 3.20
                             2 3.20  10 3.24   8 3.24  13 3.25
   4  0.165  0.502  0.999-  14 3.12 188 3.18  11 3.18 184 3.18   3 3.19  18 3.20 189 3.21   9 3.21
                             8 3.21  13 3.22   5 3.24   1 3.25
   5  0.332  0.332  0.998-  15 3.14  14 3.14 185 3.17 190 3.18 189 3.18  10 3.19   9 3.19   2 3.20
                             1 3.20   6 3.24   4 3.24  19 3.25
   6  0.502  0.165  0.999-  15 3.12 191 3.18   8 3.18 186 3.18   7 3.19  20 3.20 190 3.21  10 3.21
                            11 3.21  16 3.22   5 3.24   2 3.25
   7  0.668  0.000  0.998-  22 3.14  21 3.14 192 3.17 191 3.18 193 3.18   8 3.19   6 3.19  12 3.20
                             1 3.20   9 3.24  11 3.24  16 3.25
   8  0.337  0.835  0.999-  17 3.12 193 3.18   6 3.18 186 3.18   7 3.19  18 3.20 188 3.21   4 3.21
                             9 3.21  16 3.22   3 3.24   2 3.25
   9  0.498  0.664  0.999-  22 3.12 189 3.18 194 3.18  10 3.18   5 3.19  18 3.20 193 3.21   4 3.21
                             8 3.21  19 3.22   7 3.24  12 3.25
  10  0.664  0.498  0.999-  23 3.12 190 3.18 194 3.18   9 3.18   5 3.19  20 3.20 195 3.21   6 3.21
                            11 3.21  19 3.22   3 3.24  12 3.25
  11  0.835  0.337  0.999-  21 3.12 195 3.18   4 3.18 184 3.18   3 3.19  20 3.20 191 3.21   6 3.21
                            10 3.21  13 3.22   7 3.24   1 3.25
  12  0.836  0.836  0.999-  23 3.16  22 3.16   2 3.17   1 3.17   3 3.20   7 3.20 192 3.22 187 3.22
                           194 3.22   9 3.25  10 3.25 205 3.57
  13  0.000  0.502  0.055-  29 3.13  24 3.13  23 3.14  17 3.14  20 3.21  18 3.21  21 3.21  14 3.22
                            11 3.22   4 3.22   3 3.25 206 3.66
  14  0.173  0.342  0.053- 196 2.74   4 3.12  18 3.13  19 3.14   5 3.14   1 3.17  13 3.22  15 3.25
                            24 3.31  21 3.33 205 3.34 207 3.34
  15  0.342  0.173  0.053- 197 2.74   6 3.12  20 3.13  19 3.14   5 3.14   2 3.17  16 3.22  14 3.25
                            25 3.31  17 3.33 205 3.34 207 3.34
  16  0.502  0.000  0.055-  26 3.13  25 3.13  22 3.14  21 3.14  18 3.21  20 3.21  17 3.21  15 3.22
                             8 3.22   6 3.22   7 3.25 208 3.66
  17  0.169  0.827  0.053- 197 2.74   8 3.12  18 3.13  13 3.14   3 3.14   2 3.17  16 3.21  23 3.24
                            26 3.31  15 3.33 205 3.34 206 3.34
  18  0.333  0.667  0.055-  22 3.13  17 3.13  14 3.13  27 3.15  24 3.16  26 3.16   4 3.20   8 3.20
                             9 3.20  16 3.21  13 3.21  19 3.21
  19  0.498  0.498  0.055-  28 3.13  27 3.13  14 3.14  15 3.14  18 3.21  20 3.21  22 3.21  23 3.21
                            10 3.22   9 3.22   5 3.25 207 3.66
  20  0.667  0.333  0.055-  23 3.13  21 3.13  15 3.13  28 3.15  25 3.16  29 3.16   6 3.20  11 3.20
                            10 3.20  13 3.21  16 3.21  19 3.21
  21  0.827  0.169  0.053- 196 2.74  11 3.12  20 3.13  16 3.14   7 3.14   1 3.17  13 3.21  22 3.24
                            29 3.31  14 3.33 205 3.34 208 3.34
  22  0.659  0.832  0.053- 198 2.74   9 3.12  18 3.13   7 3.14  16 3.14  12 3.16  19 3.21  21 3.24
                            27 3.31  23 3.33 205 3.34 208 3.35
  23  0.832  0.659  0.053- 198 2.74  10 3.12  20 3.13   3 3.14  13 3.14  12 3.16  19 3.21  17 3.24
                            28 3.31  22 3.33 205 3.34 206 3.35
  24  0.165  0.512  0.110- 196 2.78  30 3.08  27 3.11  26 3.11  13 3.13  18 3.16  29 3.18  14 3.31
                           209 3.32  31 3.34 207 3.40 206 3.55
  25  0.512  0.165  0.110- 197 2.78  33 3.08  28 3.11  29 3.11  16 3.13  20 3.16  26 3.18  15 3.31
                           210 3.32  32 3.34 207 3.40 208 3.55
  26  0.347  0.835  0.110- 197 2.78  34 3.08  27 3.11  24 3.11  16 3.13  18 3.16  25 3.18  17 3.31
                           210 3.33  30 3.34 206 3.41 208 3.55
  27  0.487  0.653  0.110- 198 2.77  31 3.10  26 3.11  24 3.11  19 3.13  18 3.15  28 3.20  22 3.31
                           211 3.31  34 3.33 208 3.40 207 3.55
  28  0.653  0.487  0.110- 198 2.77  32 3.10  29 3.11  25 3.11  19 3.13  20 3.15  27 3.20  23 3.31
                           211 3.31  35 3.33 206 3.40 207 3.55
  29  0.835  0.347  0.110- 196 2.78  35 3.08  28 3.11  25 3.11  13 3.13  20 3.16  24 3.18  21 3.31
                           209 3.33  33 3.34 208 3.41 206 3.55
  30  0.165  0.652  0.167- 200 2.77  24 3.08  31 3.10  34 3.10  36 3.12  41 3.15  35 3.20  40 3.32
                           206 3.32  26 3.34 210 3.41 209 3.53
  31  0.346  0.512  0.167- 199 2.76  30 3.10  27 3.10  42 3.10  34 3.10  41 3.16  32 3.21 207 3.33
                            24 3.34 209 3.38  37 3.40 211 3.54
  32  0.512  0.346  0.167- 199 2.76  33 3.10  28 3.10  42 3.10  35 3.10  43 3.16  31 3.21 207 3.33
                            25 3.34 210 3.38  38 3.40 211 3.54
  33  0.652  0.165  0.167- 201 2.77  25 3.08  32 3.10  35 3.10  39 3.12  43 3.15  34 3.20  44 3.32
                           208 3.32  29 3.34 209 3.41 210 3.53
  34  0.486  0.833  0.167- 201 2.76  26 3.08  30 3.10  31 3.10  39 3.14  41 3.17  33 3.20  45 3.33
                           208 3.33  27 3.33 211 3.40 210 3.54
  35  0.833  0.486  0.167- 200 2.76  29 3.08  33 3.10  32 3.10  36 3.14  43 3.17  30 3.20  46 3.33
                           206 3.33  28 3.33 211 3.40 209 3.54
  36  0.001  0.500  0.222-  30 3.12  44 3.14  35 3.14  41 3.18  47 3.18  37 3.19  40 3.22  46 3.22
                            43 3.23  50 3.24  57 3.27 209 3.65
  37  0.166  0.334  0.226- 199 2.75  47 3.06  51 3.08  36 3.19  41 3.20  44 3.20  42 3.20  38 3.25
                           212 3.33 209 3.39  31 3.40 213 3.67
  38  0.334  0.166  0.226- 199 2.75  48 3.06  52 3.08  39 3.19  43 3.20  40 3.20  42 3.20  37 3.25
                           212 3.33 210 3.39  32 3.40 213 3.67
  39  0.500  0.001  0.222-  33 3.12  40 3.14  34 3.14  43 3.18  48 3.18  38 3.19  44 3.22  45 3.22
                            41 3.23  53 3.24  55 3.27 210 3.65
  40  0.175  0.834  0.224- 200 2.73  50 3.09  41 3.13  39 3.14  48 3.16  49 3.16  38 3.20  36 3.22
                           210 3.32  30 3.32 212 3.34  46 3.40
  41  0.331  0.666  0.223-  45 3.13  40 3.13  51 3.14  30 3.15  31 3.16  34 3.17  36 3.18  37 3.20
                            50 3.21  42 3.23  39 3.23  55 3.27
  42  0.497  0.497  0.222-  31 3.10  32 3.10  45 3.13  46 3.13  37 3.20  38 3.20  41 3.23  43 3.23
                            51 3.23  52 3.23  56 3.26 211 3.66
  43  0.666  0.331  0.223-  46 3.13  44 3.13  52 3.14  33 3.15  32 3.16  35 3.17  39 3.18  38 3.20
                            53 3.21  42 3.23  36 3.23  57 3.27
  44  0.834  0.175  0.224- 201 2.73  53 3.09  43 3.13  36 3.14  47 3.16  54 3.16  37 3.20  39 3.22
                           209 3.32  33 3.32 212 3.34  45 3.40
  45  0.655  0.822  0.225- 201 2.75  41 3.13  54 3.13  42 3.13  56 3.14  55 3.16  46 3.22  39 3.22
                            34 3.33 211 3.34 212 3.36  44 3.40
  46  0.822  0.655  0.225- 200 2.75  43 3.13  49 3.13  42 3.13  56 3.14  57 3.16  45 3.22  36 3.22
                            35 3.33 211 3.34 212 3.36  40 3.40
  47  0.006  0.342  0.279- 203 3.06  37 3.06  57 3.16 215 3.16  44 3.16  51 3.17  50 3.17  36 3.18
                            53 3.22  58 3.26 213 3.32  54 3.34
  48  0.342  0.006  0.279- 204 3.06  38 3.06  55 3.16 216 3.16  40 3.16  52 3.17  53 3.17  39 3.18
                            50 3.22  59 3.26 213 3.32  49 3.34
  49  0.996  0.836  0.277-  54 3.08 202 3.10  46 3.13  40 3.16 216 3.21  50 3.22  56 3.22  57 3.24
                           213 3.31  63 3.34  48 3.34 212 3.56
  50  0.166  0.672  0.279-  40 3.09  47 3.17  57 3.18  60 3.19  58 3.19  41 3.21  48 3.22  51 3.22
                            55 3.22  49 3.22  36 3.24 216 3.32
  51  0.334  0.506  0.278-  37 3.08 203 3.10  41 3.14  56 3.15  47 3.17 214 3.17  55 3.18  50 3.22
                            42 3.23  60 3.26  52 3.31 213 3.33
  52  0.506  0.334  0.278-  38 3.08 204 3.10  43 3.14  56 3.15  48 3.17 214 3.17  57 3.18  53 3.22
                            42 3.23  61 3.26  51 3.31 213 3.33
  53  0.672  0.166  0.279-  44 3.09  48 3.17  55 3.18  61 3.19  59 3.19  43 3.21  47 3.22  52 3.22
                            57 3.22  54 3.22  39 3.24 215 3.32
  54  0.836  0.996  0.277-  49 3.08 202 3.10  45 3.13  44 3.16 215 3.21  53 3.22  56 3.22  55 3.24
                           213 3.31  62 3.34  47 3.34 212 3.56
  55  0.500  0.836  0.280-  59 3.15  60 3.15  48 3.16  45 3.16  62 3.16  51 3.18  53 3.18  50 3.22
                            54 3.24  56 3.24  39 3.27  41 3.27
  56  0.661  0.661  0.279-  45 3.14  46 3.14  51 3.15  52 3.15  62 3.17  63 3.17  54 3.22  49 3.22
                            55 3.24  57 3.24  42 3.26 214 3.33
  57  0.836  0.500  0.280-  58 3.15  61 3.15  47 3.16  46 3.16  63 3.16  52 3.18  50 3.18  53 3.22
                            49 3.24  56 3.24  36 3.27  43 3.27
  58  0.004  0.511  0.335- 203 2.80  75 3.13  60 3.15  68 3.15  57 3.15  61 3.17  63 3.17  50 3.19
                            64 3.24  47 3.26 215 3.34 216 3.36
  59  0.511  0.004  0.335- 204 2.80  73 3.13  61 3.15  71 3.15  55 3.15  60 3.17  62 3.17  53 3.19
                            66 3.24  48 3.26 216 3.34 215 3.36
  60  0.330  0.675  0.335- 203 2.80  73 3.14  58 3.15  55 3.15  68 3.16  59 3.17  62 3.18  50 3.19
                            69 3.26  51 3.26 214 3.34 216 3.37
  61  0.675  0.330  0.335- 204 2.80  75 3.14  59 3.15  57 3.15  71 3.16  58 3.17  63 3.18  53 3.19
                            70 3.26  52 3.26 214 3.34 215 3.37
  62  0.660  0.823  0.335- 202 2.80  73 3.14  63 3.15  55 3.16  56 3.17  74 3.17  59 3.17  60 3.18
                            72 3.25 215 3.32  54 3.34 214 3.37
  63  0.823  0.660  0.335- 202 2.80  75 3.14  62 3.15  57 3.16  56 3.17  74 3.17  58 3.17  61 3.18
                            67 3.25 216 3.32  49 3.34 214 3.37
  64  0.005  0.336  0.391- 203 3.08  69 3.10  78 3.13  77 3.15  71 3.18 215 3.18  85 3.21  75 3.24
                            58 3.24  72 3.26  68 3.27  65 3.35
  65  0.167  0.167  0.368- 203 2.90 204 2.90 202 2.91  72 3.35  67 3.35  64 3.35  66 3.35  69 3.35
                            70 3.35 213 3.48 214 3.75 215 3.77 216 3.77
  66  0.336  0.005  0.391- 204 3.08  70 3.10  79 3.13  80 3.15  68 3.18 216 3.18  81 3.21  73 3.24
                            59 3.24  67 3.26  71 3.27  65 3.35
  67  0.997  0.837  0.391- 202 3.09  72 3.10  76 3.13  87 3.15 216 3.17  68 3.18  81 3.21  75 3.24
                            63 3.25  66 3.26  74 3.26  65 3.35
  68  0.167  0.675  0.390-  58 3.15  81 3.15  60 3.16  66 3.18  67 3.18  77 3.19  82 3.19  75 3.21
                            73 3.22  69 3.26  64 3.27 216 3.34
  69  0.328  0.498  0.391- 203 3.08  64 3.10  78 3.13  82 3.14 214 3.16  74 3.19  83 3.21  73 3.23
                            60 3.26  68 3.26  70 3.28  65 3.35
  70  0.498  0.328  0.391- 204 3.08  66 3.10  79 3.13  84 3.14 214 3.16  74 3.19  83 3.21  75 3.23
                            61 3.26  71 3.26  69 3.28  65 3.35
  71  0.675  0.167  0.390-  59 3.15  85 3.15  61 3.16  64 3.18  72 3.18  80 3.19  84 3.19  73 3.21
                            75 3.22  70 3.26  66 3.27 215 3.34
  72  0.837  0.997  0.391- 202 3.09  67 3.10  76 3.13  86 3.15 215 3.17  71 3.18  85 3.21  73 3.24
                            62 3.25  64 3.26  74 3.26  65 3.35
  73  0.500  0.833  0.390-  59 3.13  62 3.14  60 3.14  86 3.19  82 3.20  80 3.20  74 3.21  71 3.21
                            68 3.22  69 3.23  72 3.24  66 3.24
  74  0.659  0.659  0.391-  83 3.15  62 3.17  63 3.17  86 3.18  87 3.18  69 3.19  70 3.19  73 3.21
                            75 3.21  72 3.26  67 3.26 214 3.32
  75  0.833  0.500  0.390-  58 3.13  63 3.14  61 3.14  87 3.19  84 3.20  77 3.20  74 3.21  68 3.21
                            71 3.22  70 3.23  67 3.24  64 3.24
  76  0.003  0.003  0.445-  72 3.13  67 3.13  78 3.15  79 3.15  89 3.17  81 3.20  85 3.20  96 3.20
                            91 3.20  87 3.24  86 3.24
  77  0.001  0.500  0.445-  64 3.15  92 3.18  68 3.19  99 3.19  88 3.19  82 3.20  75 3.20  85 3.21
                            84 3.22  81 3.22  87 3.22  78 3.24
  78  0.167  0.330  0.445-  69 3.13  64 3.13  76 3.15  79 3.15  89 3.17  85 3.20  83 3.20  93 3.20
                            88 3.20  77 3.24  82 3.24
  79  0.330  0.167  0.445-  70 3.13  66 3.13  76 3.15  78 3.15  89 3.17  81 3.20  83 3.20  94 3.20
                            90 3.20  80 3.24  84 3.24
  80  0.500  0.001  0.445-  66 3.15  95 3.18  71 3.19  97 3.19  90 3.19  84 3.20  73 3.20  81 3.21
                            82 3.22  85 3.22  86 3.22  79 3.24
  81  0.167  0.835  0.446-  68 3.15  91 3.16  90 3.16  92 3.16  79 3.20  76 3.20  66 3.21  67 3.21
                            87 3.21  80 3.21  82 3.22  77 3.22
  82  0.333  0.667  0.445-  69 3.14  92 3.18  97 3.19  68 3.19  93 3.19  77 3.20  73 3.20  83 3.22
                            80 3.22  81 3.22  86 3.22  78 3.24
  83  0.499  0.499  0.446-  74 3.15  93 3.16  94 3.16  98 3.16  79 3.20  78 3.20  69 3.21  70 3.21
                            82 3.22  84 3.22  86 3.22  87 3.22
  84  0.667  0.333  0.445-  70 3.14  95 3.18  99 3.19  71 3.19  94 3.19  80 3.20  75 3.20  83 3.22
                            77 3.22  85 3.22  87 3.22  79 3.24
  85  0.835  0.167  0.446-  71 3.15  96 3.16  88 3.16  95 3.16  78 3.20  76 3.20  64 3.21  72 3.21
                            86 3.21  77 3.21  84 3.22  80 3.22
  86  0.667  0.833  0.445-  72 3.15  74 3.18  98 3.19  97 3.19  73 3.19  96 3.19  87 3.20  85 3.21
                            83 3.22  82 3.22  80 3.22  76 3.24
  87  0.833  0.667  0.445-  67 3.15  74 3.18  98 3.19  99 3.19  75 3.19  91 3.19  86 3.20  81 3.21
                            83 3.22  84 3.22  77 3.22  76 3.24
  88  0.001  0.334  0.501-  85 3.16 102 3.18 101 3.18 109 3.19  77 3.19  93 3.20  78 3.20  92 3.21
                            89 3.21  96 3.22  99 3.22  95 3.22
  89  0.167  0.167  0.501-  78 3.17  79 3.17  76 3.17 100 3.18 102 3.18 103 3.18  96 3.21  91 3.21
                            93 3.21  94 3.21  88 3.21  90 3.21
  90  0.334  0.001  0.501-  81 3.16 103 3.18 104 3.18 105 3.19  80 3.19  94 3.20  79 3.20  95 3.21
                            89 3.21  91 3.22  97 3.22  92 3.22
  91  1.000  0.834  0.501-  81 3.16 100 3.18 111 3.18 105 3.19  87 3.19  96 3.20  76 3.20  98 3.21
                            89 3.21  99 3.21  90 3.22  92 3.22
  92  0.167  0.666  0.501-  81 3.16 106 3.18 101 3.18  82 3.18  77 3.18 105 3.19  88 3.21  93 3.21
                            99 3.21  97 3.21  90 3.22  91 3.22
  93  0.333  0.499  0.501-  83 3.16 102 3.18 106 3.18 107 3.19  82 3.19  88 3.20  78 3.20  89 3.21
                            92 3.21  97 3.22  94 3.22  98 3.22
  94  0.499  0.333  0.501-  83 3.16 103 3.18 108 3.18 107 3.19  84 3.19  90 3.20  79 3.20  89 3.21
                            95 3.21  99 3.22  93 3.22  98 3.22
  95  0.666  0.167  0.501-  85 3.16 108 3.18 104 3.18  84 3.18  80 3.18 109 3.19  90 3.21  94 3.21
                            97 3.21  99 3.21  88 3.22  96 3.22
  96  0.834  1.000  0.501-  85 3.16 100 3.18 110 3.18 109 3.19  86 3.19  91 3.20  76 3.20  98 3.21
                            89 3.21  97 3.21  88 3.22  95 3.22
  97  0.500  0.833  0.501- 110 3.18 106 3.19  82 3.19 104 3.19  86 3.19  80 3.19  95 3.21  98 3.21
                            92 3.21  96 3.21  93 3.22  90 3.22
  98  0.667  0.667  0.501-  83 3.16 110 3.18 111 3.18  86 3.19  87 3.19 107 3.20  96 3.21  91 3.21
                            97 3.21  99 3.21  93 3.22  94 3.22
  99  0.833  0.500  0.501- 111 3.18 108 3.19  84 3.19 101 3.19  87 3.19  77 3.19  92 3.21  98 3.21
                            95 3.21  91 3.21  94 3.22  88 3.22
 100  0.000  0.000  0.556-  96 3.18  91 3.18  89 3.18 113 3.18 120 3.19 115 3.19 102 3.21 103 3.21
                           105 3.21 109 3.21 111 3.21 110 3.21
 101  1.000  0.500  0.556-  88 3.18 123 3.18  92 3.18 116 3.18 112 3.19  99 3.19 108 3.21 111 3.21
                           105 3.21 106 3.21 109 3.21 102 3.22
 102  0.167  0.333  0.556-  88 3.18  93 3.18  89 3.18 113 3.18 117 3.18 112 3.18 100 3.21 103 3.21
                           109 3.21 107 3.21 106 3.21 101 3.22
 103  0.333  0.167  0.556-  90 3.18  94 3.18  89 3.18 113 3.18 118 3.18 114 3.18 100 3.21 102 3.21
                           105 3.21 107 3.21 108 3.21 104 3.22
 104  0.500  1.000  0.556-  90 3.18 121 3.18  95 3.18 119 3.18 114 3.19  97 3.19 106 3.21 110 3.21
                           109 3.21 108 3.21 105 3.21 103 3.22
 105  0.167  0.833  0.556- 116 3.17 115 3.17 114 3.17  90 3.19  91 3.19  92 3.19 103 3.21 100 3.21
                           111 3.21 101 3.21 104 3.21 106 3.21
 106  0.333  0.667  0.556-  93 3.18  92 3.18 121 3.18 116 3.18  97 3.19 117 3.19 110 3.21 104 3.21
                           101 3.21 107 3.21 105 3.21 102 3.21
 107  0.500  0.500  0.556- 122 3.17 117 3.17 118 3.17  93 3.19  94 3.19  98 3.20 103 3.21 102 3.21
                           110 3.21 111 3.21 106 3.21 108 3.21
 108  0.667  0.333  0.556-  94 3.18  95 3.18 123 3.18 119 3.18  99 3.19 118 3.19 111 3.21 101 3.21
                           104 3.21 107 3.21 109 3.21 103 3.21
 109  0.833  0.167  0.556- 119 3.17 120 3.17 112 3.17  88 3.19  96 3.19  95 3.19 102 3.21 100 3.21
                           110 3.21 104 3.21 101 3.21 108 3.21
 110  0.666  0.833  0.556-  96 3.18  98 3.18 121 3.18  97 3.18 122 3.18 120 3.19 106 3.21 104 3.21
                           109 3.21 107 3.21 111 3.21 100 3.21
 111  0.833  0.666  0.556-  91 3.18  98 3.18 123 3.18  99 3.18 122 3.18 115 3.19 108 3.21 101 3.21
                           105 3.21 107 3.21 110 3.21 100 3.21
 112  1.000  0.333  0.611- 109 3.17 125 3.18 126 3.18 133 3.18 102 3.18 101 3.19 120 3.21 119 3.21
                           113 3.21 117 3.21 123 3.21 116 3.21
 113  0.167  0.167  0.611- 126 3.18 127 3.18 124 3.18 102 3.18 103 3.18 100 3.18 117 3.21 118 3.21
                           112 3.21 114 3.21 120 3.21 115 3.21
 114  0.333  1.000  0.611- 105 3.17 128 3.18 127 3.18 129 3.18 103 3.18 104 3.19 115 3.21 116 3.21
                           113 3.21 118 3.21 121 3.21 119 3.21
 115  0.000  0.833  0.611- 105 3.17 135 3.18 129 3.18 124 3.18 100 3.19 111 3.19 114 3.21 116 3.21
                           123 3.21 113 3.21 122 3.21 120 3.21
 116  0.167  0.667  0.611- 105 3.17 130 3.18 129 3.18 101 3.18 125 3.18 106 3.18 114 3.21 115 3.21
                           121 3.21 123 3.21 112 3.21 117 3.21
 117  0.333  0.500  0.611- 107 3.17 126 3.18 130 3.18 131 3.18 102 3.18 106 3.19 122 3.21 113 3.21
                           118 3.21 112 3.21 121 3.21 116 3.21
 118  0.500  0.333  0.611- 107 3.17 127 3.18 132 3.18 131 3.18 103 3.18 108 3.19 122 3.21 113 3.21
                           117 3.21 114 3.21 123 3.21 119 3.21
 119  0.667  0.167  0.611- 109 3.17 132 3.18 133 3.18 104 3.18 128 3.18 108 3.18 112 3.21 120 3.21
                           123 3.21 121 3.21 114 3.21 118 3.21
 120  0.833  0.000  0.611- 109 3.17 134 3.18 133 3.18 124 3.18 100 3.19 110 3.19 112 3.21 119 3.21
                           121 3.21 113 3.21 122 3.21 115 3.21
 121  0.500  0.833  0.611- 104 3.18 106 3.18 110 3.18 128 3.18 130 3.18 134 3.18 116 3.21 119 3.21
                           120 3.21 117 3.21 114 3.21 122 3.21
 122  0.666  0.666  0.611- 107 3.17 134 3.18 135 3.18 131 3.18 110 3.18 111 3.18 117 3.21 118 3.21
                           121 3.21 123 3.21 120 3.21 115 3.21
 123  0.833  0.500  0.611- 101 3.18 108 3.18 111 3.18 125 3.18 132 3.18 135 3.18 119 3.21 116 3.21
                           115 3.21 118 3.21 112 3.21 122 3.21
 124  1.000  1.000  0.667- 137 3.18 144 3.18 139 3.18 113 3.18 120 3.18 115 3.18 126 3.21 127 3.21
                           135 3.21 134 3.21 129 3.21 133 3.21
 125  1.000  0.500  0.667- 147 3.18 112 3.18 116 3.18 140 3.18 123 3.18 136 3.18 132 3.21 133 3.21
                           129 3.21 135 3.21 130 3.21 126 3.21
 126  0.167  0.333  0.667- 113 3.18 137 3.18 117 3.18 112 3.18 141 3.18 136 3.18 124 3.21 131 3.21
                           127 3.21 133 3.21 130 3.21 125 3.21
 127  0.333  0.167  0.667- 113 3.18 137 3.18 118 3.18 114 3.18 142 3.18 138 3.18 124 3.21 131 3.21
                           126 3.21 129 3.21 132 3.21 128 3.21
 128  0.500  1.000  0.667- 145 3.18 114 3.18 119 3.18 143 3.18 121 3.18 138 3.18 130 3.21 129 3.21
                           133 3.21 134 3.21 132 3.21 127 3.21
 129  0.167  0.833  0.667- 139 3.18 140 3.18 115 3.18 114 3.18 138 3.18 116 3.18 135 3.21 128 3.21
                           125 3.21 127 3.21 130 3.21 124 3.21
 130  0.333  0.667  0.667- 145 3.18 117 3.18 140 3.18 141 3.18 116 3.18 121 3.18 128 3.21 134 3.21
                           129 3.21 126 3.21 131 3.21 125 3.21
 131  0.500  0.500  0.667- 146 3.18 141 3.18 142 3.18 117 3.18 118 3.18 122 3.18 126 3.21 127 3.21
                           134 3.21 135 3.21 130 3.21 132 3.21
 132  0.667  0.333  0.667- 147 3.18 118 3.18 143 3.18 142 3.18 119 3.18 123 3.18 125 3.21 135 3.21
                           133 3.21 127 3.21 131 3.21 128 3.21
 133  0.833  0.167  0.667- 144 3.18 143 3.18 120 3.18 112 3.18 136 3.18 119 3.18 134 3.21 125 3.21
                           128 3.21 126 3.21 132 3.21 124 3.21
 134  0.667  0.833  0.667- 120 3.18 145 3.18 144 3.18 122 3.18 121 3.18 146 3.18 130 3.21 133 3.21
                           128 3.21 124 3.21 131 3.21 135 3.21
 135  0.833  0.667  0.667- 115 3.18 147 3.18 139 3.18 122 3.18 123 3.18 146 3.18 132 3.21 129 3.21
                           125 3.21 124 3.21 131 3.21 134 3.21
 136  1.000  0.333  0.722- 149 3.18 150 3.18 157 3.18 133 3.18 125 3.18 126 3.18 143 3.21 147 3.21
                           144 3.21 140 3.21 141 3.21 137 3.21
 137  0.167  0.167  0.722- 124 3.18 126 3.18 127 3.18 150 3.18 151 3.18 148 3.18 141 3.21 142 3.21
                           144 3.21 139 3.21 136 3.21 138 3.21
 138  0.333  1.000  0.722- 152 3.18 151 3.18 153 3.18 129 3.18 128 3.18 127 3.18 140 3.21 145 3.21
                           139 3.21 143 3.21 142 3.21 137 3.21
 139  0.000  0.833  0.722- 159 3.18 129 3.18 124 3.18 148 3.18 153 3.18 135 3.18 140 3.21 147 3.21
                           138 3.21 146 3.21 137 3.21 144 3.21
 140  0.167  0.667  0.722- 149 3.18 129 3.18 153 3.18 154 3.18 130 3.18 125 3.18 145 3.21 138 3.21
                           139 3.21 136 3.21 147 3.21 141 3.21
 141  0.333  0.500  0.722- 150 3.18 131 3.18 154 3.18 155 3.18 130 3.18 126 3.18 146 3.21 145 3.21
                           137 3.21 142 3.21 140 3.21 136 3.21
 142  0.500  0.333  0.722- 151 3.18 131 3.18 156 3.18 155 3.18 132 3.18 127 3.18 146 3.21 147 3.21
                           137 3.21 141 3.21 143 3.21 138 3.21
 143  0.667  0.167  0.722- 152 3.18 133 3.18 157 3.18 156 3.18 132 3.18 128 3.18 147 3.21 136 3.21
                           144 3.21 138 3.21 145 3.21 142 3.21
 144  0.833  0.000  0.722- 158 3.18 133 3.18 124 3.18 148 3.18 157 3.18 134 3.18 143 3.21 145 3.21
                           136 3.21 146 3.21 137 3.21 139 3.21
 145  0.500  0.833  0.722- 130 3.18 158 3.18 128 3.18 152 3.18 134 3.18 154 3.18 140 3.21 141 3.21
                           138 3.21 144 3.21 143 3.21 146 3.21
 146  0.667  0.667  0.722- 158 3.18 159 3.18 131 3.18 155 3.18 134 3.18 135 3.18 141 3.21 142 3.21
                           144 3.21 139 3.21 145 3.21 147 3.21
 147  0.833  0.500  0.722- 132 3.18 159 3.18 125 3.18 149 3.18 135 3.18 156 3.18 143 3.21 142 3.21
                           136 3.21 139 3.21 140 3.21 146 3.21
 148  1.000  1.000  0.777- 161 3.17 168 3.17 163 3.17 144 3.18 139 3.18 137 3.18 150 3.21 151 3.21
                           159 3.21 158 3.21 153 3.21 157 3.21
 149  1.000  0.500  0.777- 136 3.18 160 3.18 140 3.18 147 3.18 171 3.18 164 3.18 157 3.21 156 3.21
                           153 3.21 150 3.21 159 3.21 154 3.21
 150  0.167  0.334  0.777- 161 3.17 136 3.18 160 3.18 141 3.18 165 3.18 137 3.18 154 3.21 155 3.21
                           149 3.21 157 3.21 148 3.21 151 3.21
 151  0.334  0.167  0.777- 161 3.17 138 3.18 162 3.18 142 3.18 166 3.18 137 3.18 156 3.21 155 3.21
                           152 3.21 153 3.21 148 3.21 150 3.21
 152  0.500  1.000  0.777- 138 3.18 162 3.18 143 3.18 145 3.18 169 3.18 167 3.18 153 3.21 154 3.21
                           157 3.21 151 3.21 156 3.21 158 3.21
 153  0.167  0.833  0.777- 163 3.17 162 3.18 138 3.18 164 3.18 140 3.18 139 3.18 152 3.21 154 3.21
                           149 3.21 151 3.21 148 3.21 159 3.21
 154  0.333  0.667  0.777- 169 3.18 141 3.18 164 3.18 165 3.18 140 3.18 145 3.18 158 3.21 150 3.21
                           153 3.21 152 3.21 149 3.21 155 3.21
 155  0.500  0.500  0.777- 170 3.18 165 3.18 166 3.18 146 3.18 141 3.18 142 3.18 158 3.21 159 3.21
                           150 3.21 151 3.21 154 3.21 156 3.21
 156  0.667  0.333  0.777- 171 3.18 142 3.18 167 3.18 166 3.18 143 3.18 147 3.18 159 3.21 151 3.21
                           157 3.21 149 3.21 152 3.21 155 3.21
 157  0.833  0.167  0.777- 168 3.17 160 3.18 136 3.18 167 3.18 143 3.18 144 3.18 149 3.21 156 3.21
                           152 3.21 150 3.21 148 3.21 158 3.21
 158  0.666  0.833  0.777- 146 3.18 168 3.18 144 3.18 145 3.18 170 3.18 169 3.18 154 3.21 155 3.21
                           152 3.21 148 3.21 159 3.21 157 3.21
 159  0.833  0.666  0.777- 146 3.18 163 3.18 139 3.18 147 3.18 170 3.18 171 3.18 156 3.21 155 3.21
                           149 3.21 148 3.21 158 3.21 153 3.21
 160  1.000  0.333  0.833- 174 3.17 181 3.18 173 3.18 157 3.18 150 3.18 149 3.18 167 3.21 168 3.21
                           164 3.21 171 3.21 165 3.21 161 3.21
 161  0.167  0.167  0.832- 172 3.17 148 3.17 150 3.17 151 3.17 174 3.18 175 3.18 168 3.21 163 3.21
                           165 3.21 166 3.21 160 3.21 162 3.21
 162  0.333  1.000  0.833- 175 3.17 177 3.18 176 3.18 153 3.18 151 3.18 152 3.18 164 3.21 163 3.21
                           167 3.21 169 3.21 166 3.21 161 3.21
 163  0.000  0.833  0.832- 172 3.17 148 3.17 153 3.17 159 3.18 183 3.18 177 3.18 161 3.21 171 3.21
                           162 3.21 164 3.21 170 3.21 168 3.21
 164  0.167  0.667  0.833- 177 3.17 178 3.17 173 3.18 153 3.18 154 3.18 149 3.18 171 3.21 162 3.21
                           163 3.21 160 3.21 169 3.21 165 3.22
 165  0.334  0.500  0.833- 174 3.17 178 3.17 179 3.18 155 3.18 154 3.18 150 3.18 166 3.21 170 3.21
                           161 3.21 169 3.21 160 3.21 164 3.22
 166  0.500  0.334  0.833- 175 3.17 180 3.17 179 3.18 155 3.18 156 3.18 151 3.18 165 3.21 170 3.21
                           161 3.21 171 3.21 162 3.21 167 3.22
 167  0.667  0.167  0.833- 181 3.17 180 3.17 176 3.18 157 3.18 156 3.18 152 3.18 169 3.21 160 3.21
                           168 3.21 162 3.21 171 3.21 166 3.22
 168  0.833  0.000  0.832- 172 3.17 148 3.17 157 3.17 158 3.18 182 3.18 181 3.18 161 3.21 169 3.21
                           160 3.21 167 3.21 170 3.21 163 3.21
 169  0.500  0.833  0.833- 182 3.17 178 3.17 176 3.18 154 3.18 152 3.18 158 3.18 167 3.21 168 3.21
                           162 3.21 170 3.21 165 3.21 164 3.21
 170  0.667  0.667  0.833- 182 3.17 183 3.17 155 3.18 179 3.18 158 3.18 159 3.18 165 3.21 166 3.21
                           169 3.21 171 3.21 168 3.21 163 3.21
 171  0.833  0.500  0.833- 183 3.17 180 3.17 173 3.18 156 3.18 149 3.18 159 3.18 164 3.21 163 3.21
                           160 3.21 170 3.21 166 3.21 167 3.21
 172  1.000  1.000  0.887- 168 3.17 163 3.17 161 3.17 185 3.18 192 3.18 187 3.18 183 3.21 182 3.21
                           177 3.21 181 3.21 174 3.21 175 3.21
 173  0.000  0.500  0.888- 164 3.18 171 3.18 160 3.18 195 3.18 188 3.18 184 3.19 181 3.21 180 3.21
                           174 3.21 177 3.21 178 3.21 183 3.21
 174  0.167  0.334  0.888- 165 3.17 160 3.17 161 3.18 189 3.18 185 3.18 184 3.19 178 3.21 173 3.21
                           179 3.21 175 3.21 172 3.21 181 3.21
 175  0.334  0.167  0.888- 166 3.17 162 3.17 161 3.18 190 3.18 185 3.18 186 3.19 180 3.21 176 3.21
                           179 3.21 174 3.21 172 3.21 177 3.21
 176  0.500  0.000  0.888- 167 3.18 169 3.18 162 3.18 193 3.18 191 3.18 186 3.19 177 3.21 178 3.21
                           175 3.21 181 3.21 180 3.21 182 3.21
 177  0.167  0.833  0.888- 164 3.17 162 3.18 188 3.18 163 3.18 187 3.18 186 3.19 176 3.21 178 3.21
                           173 3.21 183 3.21 172 3.21 175 3.21
 178  0.333  0.667  0.888- 169 3.17 164 3.17 165 3.17 193 3.18 189 3.18 188 3.18 182 3.21 176 3.21
                           174 3.21 177 3.21 173 3.21 179 3.21
 179  0.500  0.500  0.888- 170 3.18 165 3.18 166 3.18 189 3.18 190 3.18 194 3.19 182 3.21 183 3.21
                           174 3.21 175 3.21 178 3.21 180 3.21
 180  0.667  0.333  0.888- 171 3.17 167 3.17 166 3.17 195 3.18 190 3.18 191 3.18 183 3.21 173 3.21
                           175 3.21 181 3.21 176 3.21 179 3.21
 181  0.833  0.167  0.888- 167 3.17 160 3.18 191 3.18 168 3.18 192 3.18 184 3.19 173 3.21 180 3.21
                           176 3.21 182 3.21 172 3.21 174 3.21
 182  0.666  0.833  0.888- 169 3.17 170 3.17 193 3.18 168 3.18 192 3.18 194 3.20 179 3.21 178 3.21
                           181 3.21 172 3.21 176 3.21 183 3.21
 183  0.833  0.666  0.888- 171 3.17 170 3.17 195 3.18 163 3.18 187 3.18 194 3.20 179 3.21 180 3.21
                           177 3.21 172 3.21 173 3.21 182 3.21
 184  0.000  0.333  0.943-  11 3.18   4 3.18 173 3.19 181 3.19 174 3.19 191 3.21 189 3.21 192 3.21
                           185 3.21   1 3.22 188 3.22 195 3.22
 185  0.166  0.166  0.943-   5 3.17 174 3.18 175 3.18 172 3.18 192 3.20 187 3.20 184 3.21 186 3.21
                           189 3.22 190 3.22   1 3.22   2 3.22
 186  0.333  0.000  0.943-   8 3.18   6 3.18 176 3.19 177 3.19 175 3.19 188 3.21 190 3.21 187 3.21
                           185 3.21   2 3.22 191 3.22 193 3.22
 187  0.000  0.834  0.943-   3 3.17 177 3.18 183 3.18 172 3.18 185 3.20 192 3.20 194 3.21 186 3.21
                           195 3.21   2 3.21 188 3.21  12 3.22
 188  0.167  0.667  0.943-   3 3.18 177 3.18   4 3.18 173 3.18 178 3.18 186 3.21   8 3.21 193 3.21
                           189 3.21 187 3.21 195 3.22 184 3.22
 189  0.333  0.500  0.943-   5 3.18   9 3.18 174 3.18 179 3.18 178 3.18 184 3.21   4 3.21 193 3.21
                           188 3.21 185 3.22 194 3.22 190 3.22
 190  0.500  0.333  0.943-   5 3.18  10 3.18 175 3.18 179 3.18 180 3.18 186 3.21   6 3.21 195 3.21
                           191 3.21 185 3.22 194 3.22 189 3.22
 191  0.667  0.167  0.943-   7 3.18 181 3.18   6 3.18 176 3.18 180 3.18 184 3.21  11 3.21 195 3.21
                           190 3.21 192 3.21 193 3.22 186 3.22
 192  0.834  0.000  0.943-   7 3.17 181 3.18 182 3.18 172 3.18 185 3.20 187 3.20 194 3.21 184 3.21
                           193 3.21   1 3.21 191 3.21  12 3.22
 193  0.500  0.833  0.943- 182 3.18   7 3.18   8 3.18 178 3.18 176 3.18 194 3.21   9 3.21 189 3.21
                           188 3.21 192 3.21 191 3.22 186 3.22
 194  0.667  0.667  0.943-   9 3.18  10 3.18 179 3.19 182 3.20 183 3.20 193 3.21 195 3.21 192 3.21
                           187 3.21 189 3.22 190 3.22  12 3.22
 195  0.833  0.500  0.943- 183 3.18   3 3.18  11 3.18 180 3.18 173 3.18 194 3.21  10 3.21 190 3.21
                           191 3.21 187 3.21 188 3.22 184 3.22
 196  1.000  0.231  0.099-  21 2.74  14 2.74  29 2.78  24 2.78 208 3.01 207 3.01 205 3.02 209 3.04

 197  0.231  1.000  0.099-  17 2.74  15 2.74  26 2.78  25 2.78 206 3.01 207 3.01 205 3.02 210 3.04

 198  0.769  0.769  0.099-  23 2.74  22 2.74  28 2.77  27 2.77 206 3.02 208 3.02 211 3.02 205 3.02

 199  0.233  0.233  0.179-  37 2.75  38 2.75  31 2.76  32 2.76 212 3.02 209 3.03 210 3.03 207 3.04

 200  0.998  0.765  0.179-  40 2.73  46 2.75  35 2.76  30 2.77 212 2.99 211 3.03 206 3.03 210 3.06

 201  0.765  0.998  0.179-  44 2.73  45 2.75  34 2.76  33 2.77 212 2.99 211 3.03 208 3.03 209 3.06

 202  0.949  0.949  0.334-  63 2.80  62 2.80  65 2.91 216 3.04 215 3.04 213 3.08  72 3.09  67 3.09
                            54 3.10  49 3.10
 203  0.167  0.385  0.334-  58 2.80  60 2.80  65 2.90 214 3.04 215 3.04  47 3.06 213 3.07  64 3.08
                            69 3.08  51 3.10
 204  0.385  0.167  0.334-  59 2.80  61 2.80  65 2.90 214 3.04 216 3.04  48 3.06 213 3.07  66 3.08
                            70 3.08  52 3.10
 205  1.000  1.000  0.065- 197 3.02 196 3.02 198 3.02  23 3.34  22 3.34  17 3.34  21 3.34  14 3.34
                            15 3.34  12 3.57   2 3.57   1 3.57 206 3.94 208 3.94 207 3.95
 206  1.000  0.714  0.115- 197 3.01 198 3.02 200 3.03  30 3.32  35 3.33  17 3.34  23 3.35  28 3.40
                            26 3.41  29 3.55  24 3.55  13 3.66 211 3.88 210 3.89 205 3.94
 207  0.286  0.286  0.115- 197 3.01 196 3.01 199 3.04  32 3.33  31 3.33  15 3.34  14 3.34  25 3.40
                            24 3.40  28 3.55  27 3.55  19 3.66 210 3.88 209 3.88 205 3.95
 208  0.714  1.000  0.115- 196 3.01 198 3.02 201 3.03  33 3.32  34 3.33  21 3.34  22 3.35  27 3.40
                            29 3.41  26 3.55  25 3.55  16 3.66 211 3.88 209 3.89 205 3.94
 209  0.001  0.288  0.163- 199 3.03 196 3.04 201 3.06  44 3.32  24 3.32  29 3.33  31 3.38  37 3.39
                            33 3.41  30 3.53  35 3.54  36 3.65 207 3.88 208 3.89 212 3.92
 210  0.288  0.001  0.163- 199 3.03 197 3.04 200 3.06  40 3.32  25 3.32  26 3.33  32 3.38  38 3.39
                            30 3.41  33 3.53  34 3.54  39 3.65 207 3.88 206 3.89 212 3.92
 211  0.712  0.712  0.162- 198 3.02 201 3.03 200 3.03  27 3.31  28 3.31  45 3.34  46 3.34  34 3.40
                            35 3.40  31 3.54  32 3.54  42 3.66 208 3.88 206 3.88 212 3.90
 212  0.997  0.997  0.211- 201 2.99 200 2.99 199 3.02  37 3.33  38 3.33  40 3.34  44 3.34  46 3.36
                            45 3.36  54 3.56  49 3.56 211 3.90 209 3.92 210 3.92 213 4.33
 213  0.169  0.169  0.294- 203 3.07 204 3.07 202 3.08  54 3.31  49 3.31  47 3.32  48 3.32  51 3.33
                            52 3.33  65 3.48  37 3.67  38 3.67 214 3.88 215 3.90 216 3.90 212 4.33
 214  0.473  0.473  0.335- 203 3.04 204 3.04  69 3.16  70 3.16  51 3.17  52 3.17  74 3.32  56 3.33
                            60 3.34  61 3.34  62 3.37  63 3.37  65 3.75 213 3.88
 215  0.860  0.166  0.334- 202 3.04 203 3.04  47 3.16  72 3.17  64 3.18  54 3.21  53 3.32  62 3.32
                            58 3.34  71 3.34  59 3.36  61 3.37  65 3.77 213 3.90
 216  0.166  0.860  0.334- 202 3.04 204 3.04  48 3.16  67 3.17  66 3.18  49 3.21  50 3.32  63 3.32
                            59 3.34  68 3.34  58 3.36  60 3.37  65 3.77 213 3.90
 
  LATTYP: Found a base centered orthorhombic cell.
 ALAT       =    11.1211808896
 B/A-ratio  =     1.7329246477
 C/A-ratio  =     4.2012464916
  
  Lattice vectors:
  
 A1 = (  11.1253889650,  -0.0024295337,  -0.0000504861)
 A2 = (  -5.5647985204,   9.6336547038,  -0.0000504861)
 A3 = (  -0.0001609327,  -0.0002787437,  46.7228221936)
 Subroutine PRICEL returns:
 Original cell was already a primitive cell.
 

Analysis of symmetry for initial positions (statically):

 Routine SETGRP: Setting up the symmetry group for a 
 base centered orthorhombic supercell.


 Subroutine GETGRP returns: Found  2 space group operations
 (whereof  2 operations were pure point group operations)
 out of a pool of  8 trial point group operations.


The static configuration has the point symmetry C_1h.

Analysis of symmetry for dynamics (positions and initial velocities):

 Subroutine DYNSYM returns: Found  2 space group operations
 (whereof  2 operations were pure point group operations)
 out of a pool of  2 trial space group operations
 (whereof  2 operations were pure point group operations)
 and found also     1 'primitive' translations


The dynamic configuration has the point symmetry C_1h.
 
 
 KPOINTS: Automatic mesh                          

Automatic generation of k-mesh.
 generate k-points for:   5   5   1
 
 Subroutine IBZKPT returns following result:
 ===========================================
 
 Found      9 irreducible k-points:
 
 Following reciprocal coordinates:
            Coordinates               Weight
  0.000000  0.000000  0.000000      1.000000
  0.200000 -0.000000 -0.000000      4.000000
  0.400000 -0.000000 -0.000000      4.000000
  0.200000  0.200000 -0.000000      2.000000
  0.400000  0.200000 -0.000000      4.000000
 -0.400000  0.200000  0.000000      4.000000
 -0.200000  0.200000 -0.000000      2.000000
  0.400000  0.400000 -0.000000      2.000000
 -0.400000  0.400000 -0.000000      2.000000
 
 Following cartesian coordinates:
            Coordinates               Weight
  0.000000  0.000000  0.000000      1.000000
  0.017979  0.010386  0.000000      4.000000
  0.035958  0.020771  0.000000      4.000000
  0.017984  0.031149  0.000000      2.000000
  0.035963  0.041534  0.000000      4.000000
 -0.035954 -0.000008 -0.000000      4.000000
 -0.017975  0.010378 -0.000000      2.000000
  0.035967  0.062297  0.000000      2.000000
 -0.035949  0.020755 -0.000000      2.000000
 


--------------------------------------------------------------------------------------------------------




 Dimension of arrays:
   k-Points           NKPTS =      9   number of bands    NBANDS=    424
   number of dos      NEDOS =    301   number of ions     NIONS =    216
   non local maximal  LDIM  =      6   non local SUM 2l+1 LMDIM =     18
   total plane-waves  NPLWV = ******
   max r-space proj   IRMAX =   7022   max aug-charges    IRDMAX= 105318
   dimension x,y,z NGX =    64 NGY =   64 NGZ =  270
   dimension x,y,z NGXF=   128 NGYF=  128 NGZF=  540
   support grid    NGXF=   256 NGYF=  256 NGZF= 1080
   ions per type =             195   9  12
 NGX,Y,Z   is equivalent  to a cutoff of   9.56,  9.56,  9.61 a.u.
 NGXF,Y,Z  is equivalent  to a cutoff of  19.13, 19.13, 19.21 a.u.


 I would recommend the setting:
   dimension x,y,z NGX =    63 NGY =   63 NGZ =  264
 SYSTEM =  Gd unit fixed hcp k-0.5 cut-300 yosuke  
 POSCAR =  New structure                           

 Startparameter for this run:
   NWRITE =      2    write-flag & timer
   PREC   = accura    medium, high low
   ISTART =      0    job   : 0-new  1-cont  2-samecut
   ICHARG =      2    charge: 1-file 2-atom 10-const
   ISPIN  =      1    spin polarized calculation?
   LNONCOLLINEAR =      F non collinear calculations
   LSORBIT =      F    spin-orbit coupling
   INIWAV =      1    electr: 0-lowe 1-rand  2-diag
   LASPH  =      F    aspherical Exc in radial PAW
   METAGGA=      F    non-selfconsistent MetaGGA calc.

 Electronic Relaxation 1
   ENCUT  =  300.0 eV  22.05 Ry    4.70 a.u.  15.71 15.71 65.99*2*pi/ulx,y,z
   ENINI  =  300.0     initial cutoff
   ENAUG  =  575.9 eV  augmentation charge cutoff
   NELM   =     60;   NELMIN= 12; NELMDL=-12     # of ELM steps 
   EDIFF  = 0.1E-04   stopping-criterion for ELM
   LREAL  =      T    real-space projection
   LCOMPAT=      F    compatible to vasp.4.4
   LREAL_COMPAT= F    compatible to vasp.4.5.1-3
   GGA_COMPAT  = T    GGA compatible to vasp.4.4-vasp.4.6
   LMAXPAW     = -100 max onsite density
   LMAXMIX     =    2 max onsite mixed and CHGCAR
   VOSKOWN=      1    Vosko Wilk Nusair interpolation
   ROPT   =   -0.00025  -0.00025  -0.00025
 Ionic relaxation
   EDIFFG = -.2E-01   stopping-criterion for IOM
   NSW    =     60    number of steps for IOM
   NBLOCK =      1;   KBLOCK =     60    inner block; outer block 
   IBRION =      2    ionic relax: 0-MD 1-quasi-New 2-CG
   NFREE  =      1    steps in history (QN), initial steepest desc. (CG)
   ISIF   =      3    stress and relaxation
   IWAVPR =     11    prediction:  0-non 1-charg 2-wave 3-comb
   ISYM   =      2    0-nonsym 1-usesym 2-fastsym
   LCORR  =      T    Harris-Foulkes like correction to forces

   POTIM  =   0.50    time-step for ionic-motion
   TEIN   =    0.0    initial temperature
   TEBEG  =    0.0;   TEEND  =   0.0 temperature during run
   SMASS  =  -3.00    Nose mass-parameter (am)
   estimated Nose-frequenzy (Omega)   =  0.10E-29 period in steps =****** mass=  -0.283E-26a.u.
   NPACO  =    256;   APACO  = 16.0  distance and # of slots for P.C.
   PSTRESS=    0.0 pullay stress

  Mass of Ions in am
   POMASS =  24.30 65.39 88.91
  Ionic Valenz
   ZVAL   =   2.00 12.00 11.00
  Atomic Wigner-Seitz radii
   RWIGS  =  -1.00 -1.00 -1.00
   NELECT =     630.0000    total number of electrons
   NUPDOWN=      -1.0000    fix difference up-down

 DOS related values:
   EMIN   =  10.00;   EMAX   =-10.00  energy-range for DOS
   ISMEAR =     1;   SIGMA  =   0.20  broadening in eV -4-tet -1-fermi 0-gaus

 Electronic relaxation 2 (details)
   IALGO  =     48    algorithm
   LDIAG  =      T    sub-space diagonalisation
   IMIX   =      4    mixing-type and parameters
     AMIX     =   0.40;   BMIX     =  1.00
     AMIX_MAG =   1.60;   BMIX_MAG =  1.00
     AMIN     =   0.10
     WC   =   100.;   INIMIX=   1;  MIXPRE=   1

 Intra band minimization:
   WEIMIN = 0.0010     energy-eigenvalue tresh-hold
   EBREAK =  0.59E-08  absolut break condition
   DEPER  =   0.30     relativ break condition  

   TIME   =   0.10     timestep for ELM

  volume/ion in A,a.u.               =      23.18       156.43
  Fermi-wavevector in a.u.,eV,Ry     =   0.820342  9.156185  0.672961

 Second variation
   LSECVAR=     F    do a second variation
 
 Write flags
   LWAVE  =      F    write WAVECAR
   LCHARG =      T    write CHGCAR
   LVTOT  =      F    write LOCPOT, local potential
   LELF   =      F    write electronic localiz. function (ELF)
   LORBIT =      0    0 simple, 1 ext, 2 COOP (PROOUT)


 Dipole corrections
   IDIPOL =      0    1-x, 2-y, 3-z
   LDIPOL =      F    correct potential



--------------------------------------------------------------------------------------------------------


 conjugate gradient relaxation of ions
 charge density will be updated during run
 non-spin polarized calculation
 RMM-DIIS sequential band-by-band
 performe sub-space diagonalisation
    before iterative eigenvector-optimisation
 modified Broyden-mixing scheme, WC =      100.0
 initial mixing is a Kerker type mixing with AMIX =  0.4000 and BMIX =      1.0000
 Hartree-type preconditioning will be used
 using additional bands          109
 real space projection scheme for non local part
 use partial core corrections
 calculate Harris-corrections to forces 
   (improved forces if not selfconsistent)
 use gradient corrections 
 use of overlap-Matrix (Vanderbilt PP)
 Methfessel and Paxton  Order N= 1 SIGMA  =   0.20


--------------------------------------------------------------------------------------------------------


  energy-cutoff  :      300.00
  volume of cell :     5007.03
      direct lattice vectors                 reciprocal lattice vectors
    11.125388965 -0.002429534 -0.000050486     0.089895838  0.051927564  0.000000619
    -5.564798520  9.633654704 -0.000050486     0.000022671  0.103815861  0.000000619
    -0.000160933 -0.000278744 46.722822194     0.000000097  0.000000168  0.021402817

  length of vectors
    11.125389230 11.125389230 46.722822195     0.103815864  0.103815864  0.021402817


 
 k-points in units of 2pi/SCALE and weight: Automatic mesh                          
   0.00000000  0.00000000  0.00000000       0.040
   0.01797917  0.01038551  0.00000012       0.160
   0.03595834  0.02077103  0.00000025       0.160
   0.01798370  0.03114869  0.00000025       0.080
   0.03596287  0.04153420  0.00000037       0.160
  -0.03595380 -0.00000785 -0.00000012       0.160
  -0.01797463  0.01037766 -0.00000000       0.080
   0.03596740  0.06229737  0.00000050       0.080
  -0.03594927  0.02075532 -0.00000000       0.080
 
 k-points in reciprocal lattice and weights: Automatic mesh                          
   0.00000000  0.00000000  0.00000000       0.040
   0.20000000 -0.00000000 -0.00000000       0.160
   0.40000000 -0.00000000 -0.00000000       0.160
   0.20000000  0.20000000 -0.00000000       0.080
   0.40000000  0.20000000 -0.00000000       0.160
  -0.40000000  0.20000000  0.00000000       0.160
  -0.20000000  0.20000000 -0.00000000       0.080
   0.40000000  0.40000000 -0.00000000       0.080
  -0.40000000  0.40000000 -0.00000000       0.080
 
 position of ions in fractional coordinates (direct lattice) 
   0.00019644  0.16472661  0.99937585
   0.16472629  0.00019644  0.99937585
   0.00006293  0.66819849  0.99813501
   0.16531787  0.50200240  0.99873341
   0.33196075  0.33196039  0.99810179
   0.50200240  0.16531820  0.99873341
   0.66819819  0.00006293  0.99813501
   0.33688289  0.83506176  0.99869411
   0.49832032  0.66351848  0.99870036
   0.66351818  0.49832032  0.99870036
   0.83506176  0.33688289  0.99869411
   0.83555345  0.83555345  0.99945240
   0.00005964  0.50186433  0.05520488
   0.17307715  0.34151183  0.05282561
   0.34151219  0.17307715  0.05282561
   0.50186433  0.00005964  0.05520488
   0.16858822  0.82715970  0.05283700
   0.33340995  0.66681419  0.05459904
   0.49826769  0.49826769  0.05522040
   0.66681389  0.33340959  0.05459904
   0.82715999  0.16858855  0.05283700
   0.65866766  0.83171004  0.05274840
   0.83171034  0.65866795  0.05274840
   0.16548100  0.51243116  0.11017648
   0.51243116  0.16548133  0.11017648
   0.34729883  0.83494208  0.11017286
   0.48719131  0.65334215  0.11012874
   0.65334185  0.48719131  0.11012874
   0.83494208  0.34729883  0.11017286
   0.16526536  0.65243455  0.16711088
   0.34553362  0.51213314  0.16726881
   0.51213314  0.34553326  0.16726881
   0.65243425  0.16526569  0.16711088
   0.48594087  0.83336334  0.16708244
   0.83336363  0.48594087  0.16708244
   0.00078136  0.49991740  0.22226479
   0.16570528  0.33412814  0.22615271
   0.33412850  0.16570528  0.22615271
   0.49991740  0.00078136  0.22226479
   0.17452431  0.83409812  0.22435653
   0.33075025  0.66551969  0.22296942
   0.49701314  0.49701314  0.22165362
   0.66551939  0.33074989  0.22296942
   0.83409842  0.17452464  0.22435653
   0.65509352  0.82194174  0.22475120
   0.82194204  0.65509382  0.22475120
   0.00564809  0.34222346  0.27867182
   0.34222382  0.00564809  0.27867182
   0.99552719  0.83563314  0.27685027
   0.16578651  0.67169048  0.27883823
   0.33445913  0.50631450  0.27822383
   0.50631450  0.33445877  0.27822383
   0.67169018  0.16578684  0.27883823
   0.83563343  0.99552719  0.27685027
   0.49996078  0.83597105  0.28016917
   0.66135863  0.66135893  0.27939495
   0.83597135  0.49996078  0.28016917
   0.00358854  0.51146445  0.33537881
   0.51146445  0.00358854  0.33537881
   0.33034177  0.67508939  0.33500441
   0.67508909  0.33034141  0.33500441
   0.65951646  0.82291161  0.33501835
   0.82291191  0.65951675  0.33501835
   0.00520449  0.33584602  0.39066774
   0.16714911  0.16714944  0.36830186
   0.33584638  0.00520449  0.39066774
   0.99743850  0.83652169  0.39054703
   0.16666347  0.67537548  0.39036732
   0.32754589  0.49764242  0.39082881
   0.49764242  0.32754553  0.39082881
   0.67537519  0.16666380  0.39036732
   0.83652199  0.99743850  0.39054703
   0.50048611  0.83329525  0.38955174
   0.65896952  0.65896982  0.39051758
   0.83329555  0.50048611  0.38955174
   0.00306370  0.00306370  0.44500666
   0.00083518  0.50020754  0.44515727
   0.16655461  0.33015762  0.44511717
   0.33015798  0.16655461  0.44511717
   0.50020754  0.00083518  0.44515727
   0.16659378  0.83471378  0.44608409
   0.33264121  0.66651587  0.44518879
   0.49883244  0.49883244  0.44612657
   0.66651557  0.33264086  0.44518879
   0.83471408  0.16659411  0.44608409
   0.66720457  0.83317796  0.44511567
   0.83317825  0.66720486  0.44511567
   0.00064281  0.33360570  0.50082314
   0.16651759  0.16651792  0.50071364
   0.33360606  0.00064281  0.50082314
   0.99968250  0.83369756  0.50077590
   0.16659461  0.66639360  0.50066771
   0.33257216  0.49948517  0.50080270
   0.49948517  0.33257181  0.50080270
   0.66639330  0.16659494  0.50066771
   0.83369786  0.99968250  0.50077590
   0.50011379  0.83331538  0.50055000
   0.66692651  0.66692681  0.50064905
   0.83331567  0.50011379  0.50055000
   0.00013907  0.00013907  0.55603259
   0.99990565  0.50001726  0.55602757
   0.16660792  0.33301289  0.55607567
   0.33301325  0.16660792  0.55607567
   0.50001726  0.99990565  0.55602757
   0.16652765  0.83341504  0.55627585
   0.33332712  0.66669351  0.55598167
   0.49981752  0.49981752  0.55627630
   0.66669321  0.33332676  0.55598167
   0.83341534  0.16652798  0.55627585
   0.66649000  0.83325112  0.55597911
   0.83325142  0.66649030  0.55597911
   0.99995428  0.33320481  0.61144997
   0.16675010  0.16675043  0.61145777
   0.33320517  0.99995428  0.61144997
   0.00010620  0.83331713  0.61144417
   0.16667913  0.66680376  0.61137254
   0.33334710  0.49991382  0.61144118
   0.49991382  0.33334674  0.61144118
   0.66680346  0.16667946  0.61137254
   0.83331743  0.00010620  0.61144417
   0.49993594  0.83332844  0.61131215
   0.66649809  0.66649839  0.61135496
   0.83332873  0.49993594  0.61131215
   0.99998044  0.99998044  0.66676806
   0.99985684  0.49993006  0.66670549
   0.16665788  0.33327001  0.66672531
   0.33327037  0.16665788  0.66672531
   0.49993006  0.99985684  0.66670549
   0.16661466  0.83327817  0.66675151
   0.33336105  0.66671083  0.66671185
   0.49994818  0.49994818  0.66675596
   0.66671053  0.33336069  0.66671185
   0.83327847  0.16661498  0.66675151
   0.66661959  0.83332109  0.66668777
   0.83332139  0.66661989  0.66668777
   0.99995123  0.33336479  0.72208821
   0.16675760  0.16675793  0.72200829
   0.33336515  0.99995123  0.72208821
   0.00002227  0.83324119  0.72204038
   0.16672603  0.66675647  0.72204030
   0.33346936  0.50011645  0.72206356
   0.50011645  0.33346900  0.72206356
   0.66675617  0.16672636  0.72204030
   0.83324149  0.00002227  0.72204038
   0.49989997  0.83331716  0.72200216
   0.66652259  0.66652289  0.72207076
   0.83331746  0.49989997  0.72200216
   0.99998620  0.99998620  0.77733426
   0.99994533  0.49996792  0.77730382
   0.16670251  0.33351582  0.77731837
   0.33351617  0.16670251  0.77731837
   0.49996792  0.99994533  0.77730382
   0.16684515  0.83329456  0.77734828
   0.33334555  0.66668817  0.77736338
   0.49998025  0.49998025  0.77739210
   0.66668787  0.33334520  0.77736338
   0.83329486  0.16684548  0.77734828
   0.66645426  0.83315764  0.77727756
   0.83315794  0.66645456  0.77727756
   0.99997618  0.33338941  0.83256435
   0.16665690  0.16665722  0.83244656
   0.33338977  0.99997618  0.83256435
   0.00010024  0.83340780  0.83247821
   0.16661497  0.66675922  0.83264007
   0.33351206  0.49999819  0.83263935
   0.49999819  0.33351170  0.83263935
   0.66675893  0.16661530  0.83264007
   0.83340810  0.00010024  0.83247821
   0.50014716  0.83347403  0.83262131
   0.66661139  0.66661169  0.83257912
   0.83347433  0.50014716  0.83262131
   0.99994519  0.99994519  0.88748327
   0.00001664  0.49982869  0.88780088
   0.16687590  0.33356423  0.88768870
   0.33356459  0.16687590  0.88768870
   0.49982869  0.00001664  0.88780088
   0.16668506  0.83319321  0.88774370
   0.33340073  0.66679406  0.88769620
   0.50033560  0.50033560  0.88784859
   0.66679376  0.33340037  0.88769620
   0.83319351  0.16668539  0.88774370
   0.66647522  0.83328405  0.88771358
   0.83328435  0.66647552  0.88771358
   0.00013484  0.33321105  0.94339006
   0.16611815  0.16611847  0.94289821
   0.33321140  0.00013484  0.94339006
   0.00002303  0.83403731  0.94296879
   0.16701580  0.66739418  0.94306787
   0.33292368  0.49989785  0.94305925
   0.49989785  0.33292333  0.94305925
   0.66739388  0.16701612  0.94306787
   0.83403761  0.00002303  0.94296879
   0.50037099  0.83308243  0.94303702
   0.66695074  0.66695104  0.94341848
   0.83308273  0.50037099  0.94303702
   0.99999578  0.23076708  0.09913167
   0.23076675  0.99999578  0.09913167
   0.76852408  0.76852408  0.09903666
   0.23272270  0.23272302  0.17877859
   0.99770446  0.76508406  0.17879529
   0.76508435  0.99770446  0.17879529
   0.94888539  0.94888539  0.33389650
   0.16693938  0.38514395  0.33428285
   0.38514431  0.16693938  0.33428285
   0.99985899  0.99985899  0.06504449
   0.99993141  0.71439217  0.11502465
   0.28578492  0.28578456  0.11502136
   0.71439187  0.99993141  0.11502465
   0.00089777  0.28759585  0.16268863
   0.28759620  0.00089777  0.16268863
   0.71178676  0.71178706  0.16230590
   0.99695239  0.99695239  0.21087113
   0.16914693  0.16914726  0.29388741
   0.47307533  0.47307533  0.33479545
   0.86020477  0.16633872  0.33404081
   0.16633839  0.86020447  0.33404081
 
 position of ions in cartesian coordinates  (Angst):
  -0.91464577  1.58664027 46.69365180
   1.83139003  0.00121366 46.69365180
  -3.71785042  6.43691513 46.63565067
  -0.95447727  4.83543772 46.66361003
   1.84573911  3.19690704 46.63409916
   4.66484872  1.59112045 46.66361003
   7.43345391 -0.00129534 46.63565067
  -0.89915797  8.04359985 46.66174838
   1.85149996  6.39061887 46.66204073
   4.60868500  4.79875544 46.66204073
   7.41554079  3.24310628 46.66174838
   4.64600970  8.04712485 46.69715264
  -2.79211921  4.83477213  2.57930236
   0.02509755  3.28957185  2.46813582
   2.83630799  1.66652104  2.46813582
   5.58309509 -0.00066011  2.57930236
  -2.72737603  7.96814658  2.46864332
  -0.00138005  6.42303238  2.55097055
   2.77065367  4.79891292  2.58000252
   5.56319791  3.21031760  2.55097055
   8.26430687  1.62209951  2.46864332
   2.69962657  8.01079241  2.46447900
   5.58773810  6.34334427  2.46447900
  -1.01055339  4.93615207  5.14772207
   4.78010796  1.59291428  5.14772207
  -0.78246759  8.04266923  5.14752720
   1.78445764  6.29285833  5.14546814
   4.55754304  4.69181481  5.14546814
   7.35638966  3.34369780  5.14752720
  -1.79205226  6.28488107  7.80785082
   0.99425126  4.93282770  7.81522763
   3.77483045  3.32745726  7.81522763
   6.33888766  1.59048091  7.80785082
   0.76875526  8.02710743  7.80649665
   6.56730464  4.67931530  7.80649665
  -2.77328245  4.81596774 10.38481292
  -0.01585652  3.21840954 10.56646767
   2.79515666  1.59547262 10.56646767
   5.55739163  0.00625081 10.38481292
  -2.69997323  8.03492674 10.48251946
  -0.02379369  6.41052117 10.41771015
   2.76365086  4.78678371 10.35623241
   5.56356970  3.18465121 10.41771015
   8.30843879  1.67922111 10.48251946
   2.71419384  7.91664872 10.50093598
   5.49892364  6.30888805 10.50093598
  -1.84161226  3.29677124 13.02031632
   3.77589774  0.05350262 13.02031632
   6.42545265  8.04770526 12.93513359
  -1.89342764  6.47035363 13.02806693
   0.90340497  4.87676892 12.99936019
   3.77170528  3.22075268 12.99936019
   6.55019930  1.59542353 13.02806693
   3.75679419  9.58845786 12.93513359
   0.91020259  8.05216370 13.09022685
   3.67749788  6.36961891 13.05405379
   6.51828034  4.81434042 13.09022685
  -2.80632669  4.92716966 15.66981851
   5.67021744  0.03323462 15.66981851
  -0.08160965  6.50268211 15.65230071
   5.67229140  3.18066159 15.65230071
   2.75798588  7.92595061 15.65292782
   5.48508329  6.35146400 15.65292782
  -1.81107637  3.23530306 18.25308204
   0.92938668  1.60975124 17.20808549
   3.70739679  0.04921338 18.25308204
   6.44175376  8.05622894 18.24736699
  -1.90419539  6.50582048 18.23902048
   0.87473266  4.79321056 18.26058317
   3.71367777  3.15414255 18.26058317
   6.58629837  1.60383181 18.23902048
   3.75602536  9.60683687 18.24736699
   0.93091980  8.02635415 18.20088914
   3.66419513  6.34657788 18.24601702
   6.48557001  4.81937726 18.20088914
   0.01696439  0.02938319 20.79196688
  -2.77433409  4.81870057 20.79897881
   0.01565256  3.18009580 20.79710528
   2.74622144  1.60360341 20.79710528
   5.56028415  0.00670648 20.79897881
  -2.79166519  8.04081522 20.84225730
  -0.00833530  6.42005152 20.80042643
   2.77373113  4.80424324 20.84424182
   5.56409403  3.20280374 20.80042643
   8.35938434  1.60275779 20.84225730
   2.78637122  8.02480367 20.79698448
   5.55649988  6.42547297 20.79698448
  -1.84937761  3.21370098 23.39985357
   0.92585374  1.60363202 23.39473759
   3.70783947  0.00524250 23.39985357
   6.48241706  8.02898610 23.39757100
  -1.85499679  6.41926149 23.39256614
   0.92037976  4.81092008 23.39887342
   3.70619111  3.20252885 23.39887342
   6.48673678  1.60315956 23.39256614
   3.71210072  9.62843090 23.39757100
   0.92664775  8.02651802 23.38704134
   3.70842295  6.42318270 23.39166922
   6.48784795  4.81575950 23.38704134
   0.00068381  0.00118439 25.97941195
   8.34175446  4.81440936 25.97910157
   0.00033881  3.20757142 25.98139940
   2.77767290  1.60407913 25.98139940
  -0.00147642  9.63137595 25.97910157
  -2.78519143  8.02827305 25.99072712
  -0.00171072  6.42173026 25.97698211
   2.77919099  4.81370000 25.99074811
   5.56223557  3.20938016 25.97698211
   8.34528562  1.60209314 25.99072712
   2.77799641  8.02547935 25.97683750
   5.56127245  6.41855800 25.97683750
   9.27056421  3.20738025 28.56860096
   0.92712880  1.60584048 28.56901597
  -1.85760536  9.63223424 28.56860096
  -4.63615886  8.02771878 28.56835518
  -1.85635681  6.42318183 28.56500841
   0.92659808  4.81501679 28.56821539
   3.70662981  3.20996244 28.56821539
   6.49081190  1.60394191 28.56500841
   9.27029114 -0.00117196 28.56835518
   0.92457853  8.02661341 28.56216162
   3.70602285  6.41902562 28.56416196
   6.48896517  4.81401520 28.56216162
   5.56037438  9.63085093 31.15318462
   8.34167891  4.81353856 31.15028612
  -0.00055398  3.21001747 31.15126279
   2.78023764  1.60452898 31.15126279
  -0.00219278  9.63087513 31.15028612
  -2.78347961  8.02692356 31.15246194
  -0.00144739  6.42186620 31.15060861
   2.77989978  4.81492765 31.15266979
   5.56222163  3.20967618 31.15060861
   8.34326102  1.60290088 31.15246194
   2.77903101  8.02612225 31.14945862
   5.56131191  6.41977544 31.14945862
   9.26962226  3.20889058 33.73793187
   0.92715271  1.60588190 33.73424789
  -1.85582640  9.63217365 33.73793187
  -4.63668777  8.02695658 33.73572202
  -1.85558967  6.42269523 33.73571859
   0.92681278  4.81693778 33.73680517
   3.70818608  3.21110886 33.73680517
   6.49000693  1.60436298 33.73571859
   9.26989551 -0.00201111 33.73572202
   0.92422333  8.02647400 33.73391111
   3.70614131  6.41923079 33.73711624
   6.48902204  4.81363788 33.73391111
   5.56038861  9.63087559 36.31914928
   8.34243492  4.81387226 36.31775267
  -0.00144316  3.21235453 36.31848278
   2.78270618  1.60492745 36.31848278
  -0.00228179  9.63169670 36.31775267
  -2.78102425  8.02705002 36.31985489
  -0.00151151  6.42161709 36.32056069
   2.78006029  4.81520566 36.32190239
   5.56203796  3.20949610 36.32056069
   8.34214285  1.60509051 36.31985489
   2.77808340  8.02451718 36.31652549
   5.56039569  6.41815226 36.31652549
   9.26974500  3.20909694 38.89968893
   0.92657496  1.60488122 38.89423582
  -1.85570906  9.63238313 38.89968893
  -4.63676525  8.02853065 38.89568943
  -1.85685833  6.42269124 38.90325200
   0.92792816  4.81576754 38.90321807
   3.70661493  3.21148969 38.90321807
   6.49063780  1.60326228 38.90325200
   9.27129744 -0.00129117 38.89568943
   0.92608261  8.02795379 38.90234998
   3.70661729  6.42005522 38.90037910
   6.48937394  4.81598796 38.90234998
   5.56014282  9.63044987 41.46562217
  -2.78140367  4.81492952 41.48053748
   0.00019868  3.21278977 41.47529623
   2.78226219  1.60656695 41.47529623
   5.56055311 -0.00130148 41.48053748
  -2.78225904  8.02604326 41.47784039
  -0.00150467  6.42260626 41.47562118
   2.78201850  4.81859738 41.48274134
   5.56289119  3.20999661 41.47562118
   8.34188837  1.60351777 41.47784039
   2.77759538  8.02570412 41.47640817
   5.56166762  6.41832309 41.47640817
  -1.85290400  3.20977687 44.07782906
   0.92356142  1.59966161 44.05484849
   3.70620428  0.00022650 44.07782906
  -4.64114511  8.03456458 44.05812101
  -1.85595021  6.42877642 44.06275012
   0.92192288  4.81477156 44.06234761
   3.70875502  3.20579098 44.06234761
   6.49545366  1.60709133 44.06275012
   9.27871291 -0.00206728 44.05812101
   0.93073418  8.02414997 44.06128379
   3.70848645  6.42329270 44.07910668
   6.48375395  4.81811443 44.06128379
   9.84115373  2.22067321  4.63164948
  -2.99742109  9.63302573  4.63164948
   4.27343172  7.40180086  4.62719447
   1.29404501  2.24135801  8.35301681
   6.84228280  7.36808182  8.35373132
   2.95980794  9.60963164  8.35373132
   5.27630929  9.13883577 15.60049096
  -0.28603675  3.70984510 15.61861037
   3.35584245  1.60720745 15.61861037
   5.55979590  9.62984898  3.03896106
   7.14915892  6.87974601  5.37418975
   1.58911635  2.75242337  5.37409372
   2.38345204  9.63122625  5.37418975
  -1.59045113  2.77055154  7.60125714
   3.19459756  0.00790469  7.60125714
   3.95792687  6.85533618  7.58331794
   5.54360997  9.60181413  9.85239365
   0.94050770  1.62901343 13.73123190
   2.63052426  4.55620167 15.64254063
   8.64441746  1.60026679 15.60727761
  -2.93633902  8.28641564 15.60727761
 


--------------------------------------------------------------------------------------------------------


 k-point  1 :  0.00000.00000.0000  plane waves:  59087
 k-point  2 :  0.2000-.0000-.0000  plane waves:  59073
 k-point  3 :  0.4000-.0000-.0000  plane waves:  59071
 k-point  4 :  0.20000.2000-.0000  plane waves:  59096
 k-point  5 :  0.40000.2000-.0000  plane waves:  59050
 k-point  6 :  -.40000.20000.0000  plane waves:  59095
 k-point  7 :  -.20000.2000-.0000  plane waves:  59077
 k-point  8 :  0.40000.4000-.0000  plane waves:  59042
 k-point  9 :  -.40000.4000-.0000  plane waves:  59080

 maximum and minimum number of plane-waves per node :  59096 59042

 maximum number of plane-waves:  59096
 maximal index in each direction: 
   IXMAX= 16   IYMAX= 15   IZMAX= 65
   IXMIN=-16   IYMIN=-16   IZMIN=-65

 WARNING: wrap around error must be expected set NGX to  66
 NGY is ok and might be reduce to  64
 NGZ is ok and might be reduce to 262

 real space projection operators:
  total allocation   :  52699.81 KBytes
  max/ min on nodes  :  52699.81  52699.81


 parallel 3dFFT wavefunction:
    minimum data exchange during FFTs selected (reduces bandwidth)
 parallel 3dFFT charge:
    minimum data exchange during FFTs selected (reduces bandwidth)

 For storing wavefunctions 3606.86 MBYTES are necessary
 For predicting wavefunctions  867.50 MBYTES are necessary
Broyden mixing: mesh for mixing (old mesh)
   NGX = 31   NGY = 31   NGZ =131
  (NGX  =128   NGY  =128   NGZ  =540)
 gives a total of 125891 points
 initial charge density was supplied:
 charge density of overlapping atoms calculated
 number of electron  630.0000000 magnetization 
 keeping initial charge density in first step


--------------------------------------------------------------------------------------------------------


 Maximum index for non-local projection operator         6804
 Maximum index for augmentation-charges        12835 (set IRDMAX)


--------------------------------------------------------------------------------------------------------


 First call to EWALD:  gamma=   0.104
 Maximum number of real-space cells 4x 4x 1
 Maximum number of reciprocal cells 2x 2x 7

    FEWALD:  VPU time    0.09: CPU time    0.09


----------------------------------------- Iteration    1(   1)  ---------------------------------------


    POTLOK:  VPU time    0.78: CPU time    0.78
    SETDIJ:  VPU time    0.53: CPU time    0.53
    EDDIAG:  VPU time   26.63: CPU time   26.61
  RMM-DIIS:  VPU time   51.87: CPU time   51.84
    ORTHCH:  VPU time    4.13: CPU time    4.13
    DOS   :  VPU time    0.00: CPU time   -0.00
    ------------------------------------------
      LOOP:  VPU time   83.95: CPU time   83.92

 eigenvalue-minimisations  :  3816
 total energy-change (2. order) : 0.1343697E+04  (-0.1411235E+05)
 number of electron  630.0000000 magnetization 
 augmentation part   630.0000000 magnetization 

 Free energy of the ion-electron system (eV)
  ---------------------------------------------------
  alpha Z        PSCENC =       237.41252499
  Ewald energy   TEWEN  =     40111.27221493
  -1/2 Hartree   DENC   =    -71862.03151023
  -V(xc)+E(xc)   XCENC  =      -558.69020030
  PAW double counting   =     22319.79041002   -21504.98300819
  entropy T*S    EENTRO =        -0.00622228
  eigenvalues    EBANDS =      -180.77668358
  atomic energy  EATOM  =     32781.70910180
  ---------------------------------------------------
  free energy    TOTEN  =      1343.69662717 eV

  energy without entropy =     1343.70284945  energy(sigma->0) =     1343.69870127


--------------------------------------------------------------------------------------------------------




----------------------------------------- Iteration    1(   2)  ---------------------------------------


    EDDIAG:  VPU time   26.55: CPU time   26.54
  RMM-DIIS:  VPU time   51.74: CPU time   51.73
    ORTHCH:  VPU time    4.13: CPU time    4.13
    DOS   :  VPU time    0.00: CPU time   -0.00
    ------------------------------------------
      LOOP:  VPU time   82.45: CPU time   82.43

 eigenvalue-minimisations  :  3816
 total energy-change (2. order) :-0.1671042E+04  (-0.3577831E+04)
 number of electron  630.0000000 magnetization 
 augmentation part   630.0000000 magnetization 

 Free energy of the ion-electron system (eV)
  ---------------------------------------------------
  alpha Z        PSCENC =       237.41252499
  Ewald energy   TEWEN  =     40111.27221493
  -1/2 Hartree   DENC   =    -71862.03151023
  -V(xc)+E(xc)   XCENC  =      -558.69020030
  PAW double counting   =     22319.79041002   -21504.98300819
  entropy T*S    EENTRO =        -0.04189716
  eigenvalues    EBANDS =     -1851.78305125
  atomic energy  EATOM  =     32781.70910180
  ---------------------------------------------------
  free energy    TOTEN  =      -327.34541537 eV

  energy without entropy =     -327.30351821  energy(sigma->0) =     -327.33144965


--------------------------------------------------------------------------------------------------------




----------------------------------------- Iteration    1(   3)  ---------------------------------------


    EDDIAG:  VPU time   26.60: CPU time   26.59
  RMM-DIIS:  VPU time   51.76: CPU time   51.73
    ORTHCH:  VPU time    4.13: CPU time    4.13
    DOS   :  VPU time    0.00: CPU time   -0.00
    ------------------------------------------
      LOOP:  VPU time   82.51: CPU time   82.47

 eigenvalue-minimisations  :  3816
 total energy-change (2. order) : 0.8192456E+02  (-0.7108312E+03)
 number of electron  630.0000000 magnetization 
 augmentation part   630.0000000 magnetization 

 Free energy of the ion-electron system (eV)
  ---------------------------------------------------
  alpha Z        PSCENC =       237.41252499
  Ewald energy   TEWEN  =     40111.27221493
[...]
 -----------------------------------------------------------------------------------------------
   -.264E-01 -.490E-01 -.312E+01   -.398E-12 -.227E-12 -.387E-11   0.300E-01 0.520E-01 0.310E+01   0.815E-04 0.174E-03 0.102E-02
 
 
 POSITION                                       TOTAL-FORCE (eV/Angst)
 -----------------------------------------------------------------------------------
     -0.91465      1.58664     46.69365        -0.000513      0.000402      0.000032
      1.83139      0.00121     46.69365         0.000605     -0.000243      0.000032
     -3.71785      6.43692     46.63565         0.001296     -0.002343      0.000191
     -0.95448      4.83544     46.66361         0.001010     -0.002531     -0.002070
      1.84574      3.19691     46.63410         0.001048      0.001816     -0.000234
      4.66485      1.59112     46.66361        -0.002697     -0.000391     -0.002070
      7.43345     -0.00130     46.63565        -0.002677     -0.000049      0.000191
     -0.89916      8.04360     46.66175        -0.002588     -0.000795     -0.001506
      1.85150      6.39062     46.66204         0.000167      0.001413     -0.002835
      4.60868      4.79876     46.66204         0.001141      0.000851     -0.002835
      7.41554      3.24311     46.66175         0.000605     -0.002639     -0.001506
      4.64601      8.04712     46.69715        -0.001077     -0.001865     -0.000882
     -2.79212      4.83477      2.57930        -0.001109      0.002823     -0.005430
      0.02510      3.28957      2.46814         0.000954      0.000937     -0.000914
      2.83631      1.66652      2.46814         0.000334      0.001295     -0.000914
      5.58310     -0.00066      2.57930         0.003000      0.000451     -0.005430
     -2.72738      7.96815      2.46864        -0.000439     -0.003579     -0.002200
     -0.00138      6.42303      2.55097         0.000375     -0.000090     -0.000746
      2.77065      4.79891      2.58000        -0.000010     -0.000018     -0.003461
      5.56320      3.21032      2.55097        -0.000266      0.000280     -0.000746
      8.26431      1.62210      2.46864        -0.002880     -0.002170     -0.002200
      2.69963      8.01079      2.46448        -0.003009      0.000306     -0.001601
      5.58774      6.34334      2.46448         0.001769     -0.002453     -0.001601
     -1.01055      4.93615      5.14772         0.000483      0.001359      0.000055
      4.78011      1.59291      5.14772         0.000935      0.001097      0.000055
     -0.78247      8.04267      5.14753         0.000350     -0.003177      0.000679
      1.78446      6.29286      5.14547        -0.003519     -0.000666     -0.001289
      4.55754      4.69181      5.14547         0.001182     -0.003381     -0.001289
      7.35639      3.34370      5.14753        -0.002926     -0.001286      0.000679
     -1.79205      6.28488      7.80785         0.001407     -0.000234      0.001078
      0.99425      4.93283      7.81523         0.000301      0.000158      0.001535
      3.77483      3.32746      7.81523        -0.000014      0.000340      0.001535
      6.33889      1.59048      7.80785        -0.000906      0.001101      0.001078
      0.76876      8.02711      7.80650         0.001158     -0.003465      0.000050
      6.56730      4.67932      7.80650        -0.003580     -0.000729      0.000050
     -2.77328      4.81597     10.38481         0.000476      0.000163      0.002769
     -0.01586      3.21841     10.56647         0.004599     -0.003252      0.003313
      2.79516      1.59547     10.56647        -0.005116      0.002357      0.003313
      5.55739      0.00625     10.38481        -0.000097      0.000493      0.002769
     -2.69997      8.03493     10.48252         0.002623     -0.001861      0.001790
     -0.02379      6.41052     10.41771         0.001030      0.001255     -0.003937
      2.76365      4.78678     10.35623         0.000297      0.000514      0.005706
      5.56357      3.18465     10.41771         0.000572      0.001520     -0.003937
      8.30844      1.67922     10.48252        -0.002923      0.001341      0.001790
      2.71419      7.91665     10.50094        -0.001425      0.000134      0.000082
      5.49892      6.30889     10.50094         0.000829     -0.001167      0.000082
     -1.84161      3.29677     13.02032         0.000437      0.003049      0.004894
      3.77590      0.05350     13.02032         0.002422      0.001903      0.004894
      6.42545      8.04771     12.93513         0.001545      0.001311     -0.003358
     -1.89343      6.47035     13.02807        -0.001684      0.007138      0.001870
      0.90340      4.87677     12.99936         0.001945      0.000984      0.008919
      3.77171      3.22075     12.99936        -0.000121      0.002177      0.008919
      6.55020      1.59542     13.02807         0.007024      0.002111      0.001870
      3.75679      9.58846     12.93513         0.000363      0.001993     -0.003358
      0.91020      8.05216     13.09023         0.004133      0.003737     -0.002315
      3.67750      6.36962     13.05405        -0.001147     -0.001987      0.002863
      6.51828      4.81434     13.09023         0.001170      0.005448     -0.002315
     -2.80633      4.92717     15.66982         0.004823      0.001495      0.002754
      5.67022      0.03323     15.66982        -0.001117      0.004924      0.002754
     -0.08161      6.50268     15.65230        -0.002557     -0.003638      0.003316
      5.67229      3.18066     15.65230        -0.001872     -0.004034      0.003316
      2.75799      7.92595     15.65293         0.005070     -0.002208      0.002876
      5.48508      6.35146     15.65293        -0.004447      0.003286      0.002876
     -1.81108      3.23530     18.25308         0.000446      0.001118      0.001625
      0.92939      1.60975     17.20809        -0.002598     -0.004499      0.005669
      3.70740      0.04921     18.25308         0.000746      0.000945      0.001625
      6.44175      8.05623     18.24737        -0.002949     -0.001702      0.000345
     -1.90420      6.50582     18.23902        -0.001933      0.000850      0.000519
      0.87473      4.79321     18.26058        -0.005314     -0.000350      0.006197
      3.71368      3.15414     18.26058         0.002354     -0.004777      0.006197
      6.58630      1.60383     18.23902         0.001702     -0.001249      0.000519
      3.75603      9.60684     18.24737         0.000000     -0.003405      0.000345
      0.93092      8.02635     18.20089        -0.001105     -0.000161      0.004377
      3.66420      6.34658     18.24602        -0.002221     -0.003847      0.003183
      6.48557      4.81938     18.20089         0.000413     -0.001038      0.004377
      0.01696      0.02938     20.79197         0.000126      0.000219      0.003382
     -2.77433      4.81870     20.79898        -0.001239      0.000087      0.002375
      0.01565      3.18010     20.79711        -0.000737      0.001332      0.004800
      2.74622      1.60360     20.79711         0.001522      0.000028      0.004800
      5.56028      0.00671     20.79898         0.000695     -0.001030      0.002375
     -2.79167      8.04082     20.84226         0.000191      0.000032      0.001047
     -0.00834      6.42005     20.80043         0.000908      0.001306      0.002298
      2.77373      4.80424     20.84424        -0.000505     -0.000875      0.003063
      5.56409      3.20280     20.80043         0.000677      0.001440      0.002298
      8.35938      1.60276     20.84226        -0.000068      0.000182      0.001047
      2.78637      8.02480     20.79698        -0.001564     -0.000178      0.003505
      5.55650      6.42547     20.79698         0.000628     -0.001443      0.003505
     -1.84938      3.21370     23.39985         0.000522      0.000446      0.001555
      0.92585      1.60363     23.39474         0.000034      0.000059      0.007108
      3.70784      0.00524     23.39985         0.000125      0.000675      0.001555
      6.48242      8.02899     23.39757        -0.000437      0.001212      0.001638
     -1.85500      6.41926     23.39257        -0.000193      0.000049      0.002710
      0.92038      4.81092     23.39887        -0.000526     -0.000300      0.002472
      3.70619      3.20253     23.39887         0.000003     -0.000606      0.002472
      6.48674      1.60316     23.39257         0.000139     -0.000143      0.002710
      3.71210      9.62843     23.39757         0.001269      0.000227      0.001638
      0.92665      8.02652     23.38704         0.000036      0.000508      0.005181
      3.70842      6.42318     23.39167         0.000226      0.000391      0.003285
      6.48785      4.81576     23.38704         0.000422      0.000285      0.005181
      0.00068      0.00118     25.97941        -0.000596     -0.001033      0.000704
      8.34175      4.81441     25.97910         0.000527     -0.000587      0.000603
      0.00034      3.20757     25.98140        -0.000788      0.000750      0.000913
      2.77767      1.60408     25.98140         0.001043     -0.000308      0.000913
     -0.00148      9.63138     25.97910        -0.000772      0.000163      0.000603
     -2.78519      8.02827     25.99073        -0.000390      0.000598      0.001915
     -0.00171      6.42173     25.97698         0.000001     -0.000547      0.001087
      2.77919      4.81370     25.99075        -0.000237     -0.000411      0.002654
      5.56224      3.20938     25.97698        -0.000474     -0.000273      0.001087
      8.34529      1.60209     25.99073         0.000713     -0.000038      0.001915
      2.77800      8.02548     25.97684         0.000481      0.000476      0.000949
      5.56127      6.41856     25.97684         0.000172      0.000655      0.000949
      9.27056      3.20738     28.56860         0.000117      0.000194     -0.000060
      0.92713      1.60584     28.56902        -0.000090     -0.000156      0.000230
     -1.85761      9.63223     28.56860         0.000109      0.000198     -0.000060
     -4.63616      8.02772     28.56836        -0.000307      0.000238     -0.000182
     -1.85636      6.42318     28.56501         0.000223     -0.000356      0.000090
      0.92660      4.81502     28.56822        -0.000150      0.000094     -0.000197
      3.70663      3.20996     28.56822         0.000157     -0.000083     -0.000197
      6.49081      1.60394     28.56501        -0.000420      0.000015      0.000090
      9.27029     -0.00117     28.56836         0.000360     -0.000146     -0.000182
      0.92458      8.02661     28.56216        -0.000071     -0.000003     -0.000472
      3.70602      6.41903     28.56416         0.000222      0.000384      0.000270
      6.48897      4.81402     28.56216         0.000033     -0.000063     -0.000472
      5.56037      9.63085     31.15318        -0.000176     -0.000305      0.000168
      8.34168      4.81354     31.15029         0.000079     -0.000208     -0.000016
     -0.00055      3.21002     31.15126        -0.000053     -0.000118      0.000314
      2.78024      1.60453     31.15126        -0.000075     -0.000105      0.000314
     -0.00219      9.63088     31.15029        -0.000219     -0.000035     -0.000016
     -2.78348      8.02692     31.15246        -0.000100     -0.000288     -0.000326
     -0.00145      6.42187     31.15061        -0.000067     -0.000044     -0.000083
      2.77990      4.81493     31.15267         0.000199      0.000345     -0.000476
      5.56222      3.20968     31.15061        -0.000005     -0.000080     -0.000083
      8.34326      1.60290     31.15246        -0.000200     -0.000231     -0.000326
      2.77903      8.02612     31.14946        -0.000108     -0.000030      0.000105
      5.56131      6.41978     31.14946         0.000028     -0.000109      0.000105
      9.26962      3.20889     33.73793         0.000049     -0.000011     -0.000147
      0.92715      1.60588     33.73425         0.000006      0.000010      0.000297
     -1.85583      9.63217     33.73793        -0.000034      0.000037     -0.000147
     -4.63669      8.02696     33.73572         0.000025      0.000208      0.000316
     -1.85559      6.42270     33.73572         0.000071      0.000143     -0.000048
      0.92681      4.81694     33.73681        -0.000134      0.000085      0.000070
      3.70819      3.21111     33.73681         0.000141     -0.000074      0.000070
      6.49001      1.60436     33.73572         0.000088      0.000133     -0.000048
      9.26990     -0.00201     33.73572         0.000168      0.000126      0.000316
      0.92422      8.02647     33.73391        -0.000069     -0.000116      0.000005
      3.70614      6.41923     33.73712        -0.000041     -0.000071      0.000037
      6.48902      4.81364     33.73391        -0.000066     -0.000118      0.000005
      5.56039      9.63088     36.31915         0.000061      0.000106     -0.001298
      8.34243      4.81387     36.31775         0.000193     -0.000423     -0.001530
     -0.00144      3.21235     36.31848         0.000322     -0.000253     -0.001455
      2.78271      1.60493     36.31848        -0.000380      0.000153     -0.001455
     -0.00228      9.63170     36.31775        -0.000463     -0.000045     -0.001530
     -2.78102      8.02705     36.31985        -0.000290     -0.000009     -0.001369
     -0.00151      6.42162     36.32056        -0.000032     -0.000030     -0.002181
      2.78006      4.81521     36.32190         0.000276      0.000478     -0.002292
      5.56204      3.20950     36.32056        -0.000010     -0.000043     -0.002181
      8.34214      1.60509     36.31985         0.000138     -0.000256     -0.001369
      2.77808      8.02452     36.31653        -0.000042      0.000071     -0.001458
      5.56040      6.41815     36.31653         0.000083     -0.000001     -0.001458
      9.26975      3.20910     38.89969         0.000270     -0.000419     -0.002005
      0.92657      1.60488     38.89424         0.000015      0.000026     -0.001067
     -1.85571      9.63238     38.89969        -0.000498      0.000025     -0.002005
     -4.63677      8.02853     38.89569        -0.000091      0.000190     -0.001168
     -1.85686      6.42269     38.90325         0.000629      0.000082     -0.002769
      0.92793      4.81577     38.90322        -0.000343      0.000701     -0.002629
      3.70661      3.21149     38.90322         0.000778      0.000053     -0.002629
      6.49064      1.60326     38.90325        -0.000244      0.000586     -0.002769
      9.27130     -0.00129     38.89569         0.000210      0.000016     -0.001168
      0.92608      8.02795     38.90235        -0.000225     -0.000495     -0.002565
      3.70662      6.42006     38.90038         0.000220      0.000381     -0.002457
      6.48937      4.81599     38.90235        -0.000316     -0.000442     -0.002565
      5.56014      9.63045     41.46562         0.000119      0.000206      0.000659
     -2.78140      4.81493     41.48054         0.000354     -0.000616     -0.004380
      0.00020      3.21279     41.47530         0.000384     -0.000214     -0.001983
      2.78226      1.60657     41.47530        -0.000378      0.000226     -0.001983
      5.56055     -0.00130     41.48054        -0.000711     -0.000001     -0.004380
     -2.78226      8.02604     41.47784        -0.000343     -0.000244     -0.002029
     -0.00150      6.42261     41.47562         0.000016      0.000009     -0.002499
      2.78202      4.81860     41.48274         0.000415      0.000719     -0.003955
      5.56289      3.21000     41.47562         0.000000      0.000018     -0.002499
      8.34189      1.60352     41.47784        -0.000040     -0.000419     -0.002029
      2.77760      8.02570     41.47641        -0.000202      0.000539     -0.002037
      5.56167      6.41832     41.47641         0.000568      0.000094     -0.002037
     -1.85290      3.20978     44.07783         0.001012     -0.002530     -0.002537
      0.92356      1.59966     44.05485         0.000255      0.000443     -0.000670
      3.70620      0.00023     44.07783        -0.002697     -0.000389     -0.002537
     -4.64115      8.03456     44.05812         0.000708     -0.000582     -0.001220
     -1.85595      6.42878     44.06275         0.001147     -0.000243     -0.004213
      0.92192      4.81477     44.06235        -0.000593      0.000236     -0.004418
      3.70876      3.20579     44.06235         0.000501     -0.000395     -0.004418
      6.49545      1.60709     44.06275        -0.000784      0.000871     -0.004213
      9.27871     -0.00207     44.05812        -0.000858      0.000322     -0.001220
      0.93073      8.02415     44.06128        -0.000789     -0.000356     -0.004644
      3.70849      6.42329     44.07911         0.001352      0.002341     -0.003500
      6.48375      4.81811     44.06128         0.000086     -0.000861     -0.004644
      9.84115      2.22067      4.63165         0.001299      0.000955      0.003877
     -2.99742      9.63303      4.63165         0.000177      0.001603      0.003877
      4.27343      7.40180      4.62719        -0.002028     -0.003513      0.002227
      1.29405      2.24136      8.35302         0.001975      0.003421      0.002039
      6.84228      7.36808      8.35373        -0.000336      0.001179     -0.002156
      2.95981      9.60963      8.35373         0.001189      0.000298     -0.002156
      5.27631      9.13884     15.60049         0.000771      0.001336     -0.006684
     -0.28604      3.70985     15.61861         0.000990     -0.004211      0.001847
      3.35584      1.60721     15.61861        -0.004142     -0.001248      0.001847
      5.55980      9.62985      3.03896        -0.000548     -0.000949     -0.003306
      7.14916      6.87975      5.37419         0.000536     -0.003825      0.000777
      1.58912      2.75242      5.37409         0.001140      0.001975      0.002442
      2.38345      9.63123      5.37419        -0.003581     -0.001448      0.000777
     -1.59045      2.77055      7.60126        -0.001780      0.003013     -0.002177
      3.19460      0.00790      7.60126         0.003500     -0.000035     -0.002177
      3.95793      6.85534      7.58332        -0.000894     -0.001548     -0.002793
      5.54361      9.60181      9.85239        -0.000450     -0.000779     -0.004123
      0.94051      1.62901     13.73123         0.003688      0.006388     -0.002633
      2.63052      4.55620     15.64254        -0.000869     -0.001505     -0.012138
      8.64442      1.60027     15.60728         0.002505      0.000462     -0.003566
     -2.93634      8.28642     15.60728        -0.000853      0.002400     -0.003566
 -----------------------------------------------------------------------------------
    total drift:                                0.003706      0.003158     -0.014570


--------------------------------------------------------------------------------------------------------




--------------------------------------------------------------------------------------------------------


  
 reached required accuracy - stopping structural energy minimisation
     LOOP+:  VPU time 4664.83: CPU time 4663.87
  
  
 General timing and accounting informations for this job:
 ========================================================
  
                  Total CPU time used (sec):     4711.784
                            User time (sec):     4483.092
                          System time (sec):      228.691
                         Elapsed time (sec):     4712.147
  
                   Maximum memory used (kb):     1643524.
                   Average memory used (kb):           0.
  
                          Minor page faults:      3916827
                          Major page faults:            0
                 Voluntary context switches:        14994
