 vasp.4.6.28 25Jul05 complex 
 executed on             LinuxIFC date 2018.12.05  19:12:38
 running on    8 nodes
 distr:  one band on    1 nodes,    8 groups


--------------------------------------------------------------------------------------------------------


 INCAR:
 POTCAR:   PAW_PBE Mg 05Jan2001                   
 POTCAR:   PAW_PBE Zn 06Sep2000                   
 POTCAR:   PAW_PBE Y_sv 06Sep2000                 
 POTCAR:   PAW_PBE Mg 05Jan2001                   
   VRHFIN =Mg: s2p0                                                             
   LEXCH  = PE                                                                  
   EATOM  =    23.0029 eV,    1.6907 Ry                                         
                                                                                
   TITEL  = PAW_PBE Mg 05Jan2001                                                
   LULTRA =        F    use ultrasoft PP ?                                      
   IUNSCR =        1    unscreen: 0-lin 1-nonlin 2-no                           
   RPACOR =    2.000    partial core radius                                     
   POMASS =   24.305; ZVAL   =    2.000    mass and valenz                      
   RCORE  =    2.000    outmost cutoff radius                                   
   RWIGS  =    2.880; RWIGS  =    1.524    wigner-seitz radius (au A)           
   ENMAX  =  210.012; ENMIN  =  157.509 eV                                      
   ICORE  =        2    local potential                                         
   LCOR   =        T    correct aug charges                                     
   LPAW   =        T    paw PP                                                  
   EAUG   =  274.554                                                            
   DEXC   =    -.136                                                            
   RMAX   =    3.182    core radius for proj-oper                               
   RAUG   =    1.300    factor for augmentation sphere                          
   RDEP   =    2.025    radius for radial grids                                 
   QCUT   =   -3.929; QGAM   =    7.858    optimization parameters              
                                                                                
   Description                                                                  
     l     E      TYP  RCUT    TYP  RCUT                                        
     0   .000     23  2.000                                                     
     0  2.000     23  2.000                                                     
     1   .000     23  2.000                                                     
     1  2.000     23  2.000                                                     
     2   .000     23  2.000                                                     
  local pseudopotential read in
  partial core-charges read in
  atomic valenz-charges read in
  non local Contribution for L=           0  read in
    real space projection operators read in
  non local Contribution for L=           0  read in
    real space projection operators read in
  non local Contribution for L=           1  read in
    real space projection operators read in
  non local Contribution for L=           1  read in
    real space projection operators read in
    PAW grid and wavefunctions read in
 
   number of l-projection  operators is LMAX  =           4
   number of lm-projection operators is LMMAX =           8
 
 POTCAR:   PAW_PBE Zn 06Sep2000                   
   VRHFIN =Zn: d10 p2                                                           
   LEXCH  = PE                                                                  
   EATOM  =  1749.0928 eV,  128.5547 Ry                                         
                                                                                
   TITEL  = PAW_PBE Zn 06Sep2000                                                
   LULTRA =        F    use ultrasoft PP ?                                      
   IUNSCR =        1    unscreen: 0-lin 1-nonlin 2-no                           
   RPACOR =    2.000    partial core radius                                     
   POMASS =   65.390; ZVAL   =   12.000    mass and valenz                      
   RCORE  =    2.300    outmost cutoff radius                                   
   RWIGS  =    2.400; RWIGS  =    1.270    wigner-seitz radius (au A)           
   ENMAX  =  276.727; ENMIN  =  207.545 eV                                      
   RCLOC  =    1.828    cutoff for local pot                                    
   LCOR   =        T    correct aug charges                                     
   LPAW   =        T    paw PP                                                  
   EAUG   =  575.892                                                            
   DEXC   =    -.003                                                            
   RMAX   =    2.772    core radius for proj-oper                               
   RAUG   =    1.300    factor for augmentation sphere                          
   RDEP   =    2.324    radius for radial grids                                 
   QCUT   =   -4.510; QGAM   =    9.020    optimization parameters              
                                                                                
   Description                                                                  
     l     E      TYP  RCUT    TYP  RCUT                                        
     2   .000     23  2.300                                                     
     2   .000     23  2.300                                                     
     0   .000     23  2.300                                                     
     0   .000     23  2.300                                                     
     1  -.200     23  2.300                                                     
     1   .000     23  2.300                                                     
     3   .000      7   .000                                                     
  local pseudopotential read in
  partial core-charges read in
  atomic valenz-charges read in
  non local Contribution for L=           2  read in
    real space projection operators read in
  non local Contribution for L=           2  read in
    real space projection operators read in
  non local Contribution for L=           0  read in
    real space projection operators read in
  non local Contribution for L=           0  read in
    real space projection operators read in
  non local Contribution for L=           1  read in
    real space projection operators read in
  non local Contribution for L=           1  read in
    real space projection operators read in
    PAW grid and wavefunctions read in
 
   number of l-projection  operators is LMAX  =           6
   number of lm-projection operators is LMMAX =          18
 
 POTCAR:   PAW_PBE Y_sv 06Sep2000                 
   VRHFIN =Y: 4s4p5s4d                                                          
   LEXCH  = PE                                                                  
   EATOM  =  1046.2256 eV,   76.8954 Ry                                         
                                                                                
   TITEL  = PAW_PBE Y_sv 06Sep2000                                              
   LULTRA =        F    use ultrasoft PP ?                                      
   IUNSCR =        1    unscreen: 0-lin 1-nonlin 2-no                           
   RPACOR =    2.200    partial core radius                                     
   POMASS =   88.906; ZVAL   =   11.000    mass and valenz                      
   RCORE  =    2.600    outmost cutoff radius                                   
   RWIGS  =    3.430; RWIGS  =    1.815    wigner-seitz radius (au A)           
   ENMAX  =  211.641; ENMIN  =  158.731 eV                                      
   RCLOC  =    2.212    cutoff for local pot                                    
   LCOR   =        T    correct aug charges                                     
   LPAW   =        T    paw PP                                                  
   EAUG   =  363.258                                                            
   DEXC   =     .000                                                            
   RMAX   =    3.169    core radius for proj-oper                               
   RAUG   =    1.300    factor for augmentation sphere                          
   RDEP   =    2.745    radius for radial grids                                 
   QCUT   =   -3.944; QGAM   =    7.888    optimization parameters              
                                                                                
   Description                                                                  
     l     E      TYP  RCUT    TYP  RCUT                                        
     0   .000     23  2.600                                                     
     0   .000     23  2.600                                                     
     1   .000     23  2.600                                                     
     1   .000     23  2.600                                                     
     2   .000     23  2.600                                                     
     2   .000     23  2.600                                                     
     3   .000      7   .000                                                     
  local pseudopotential read in
  partial core-charges read in
  atomic valenz-charges read in
  non local Contribution for L=           0  read in
    real space projection operators read in
  non local Contribution for L=           0  read in
    real space projection operators read in
  non local Contribution for L=           1  read in
    real space projection operators read in
  non local Contribution for L=           1  read in
    real space projection operators read in
  non local Contribution for L=           2  read in
    real space projection operators read in
  non local Contribution for L=           2  read in
    real space projection operators read in
    PAW grid and wavefunctions read in
 
   number of l-projection  operators is LMAX  =           6
   number of lm-projection operators is LMMAX =          18
 
 Optimization of the real space projectors (new method)

 maximal supplied QI-value         = 18.90
 optimisation between [QCUT,QGAM] = [  8.69, 17.57] = [ 21.16, 86.49] Ry 
 Optimized for a Real-space Cutoff    1.50 Angstroem

   l    n(q)    QCUT    max X(q) W(low)/X(q) W(high)/X(q)  e(spline) 
   0      8     8.693    21.263    0.25E-04    0.57E-05    0.11E-07
   0      8     8.693    32.896    0.17E-03    0.18E-03    0.83E-07
   1      7     8.693    18.024    0.20E-04    0.82E-04    0.23E-07
   1      7     8.693    48.877    0.92E-04    0.21E-03    0.19E-06
 Optimization of the real space projectors (new method)

 maximal supplied QI-value         = 16.25
 optimisation between [QCUT,QGAM] = [  8.78, 17.71] = [ 21.57, 87.87] Ry 
 Optimized for a Real-space Cutoff    1.55 Angstroem

   l    n(q)    QCUT    max X(q) W(low)/X(q) W(high)/X(q)  e(spline) 
   2      7     8.776     5.523    0.25E-04    0.61E-04    0.37E-07
   2      7     8.776     9.671    0.20E-03    0.41E-03    0.27E-06
   0      8     8.776    11.246    0.21E-04    0.15E-05    0.57E-08
   0      8     8.776    34.692    0.16E-03    0.15E-03    0.68E-07
   1      8     8.776     4.877    0.32E-04    0.71E-04    0.29E-07
   1      8     8.776     6.599    0.91E-04    0.23E-03    0.83E-07
 Optimization of the real space projectors (new method)

 maximal supplied QI-value         = 14.36
 optimisation between [QCUT,QGAM] = [  8.76, 17.67] = [ 21.49, 87.39] Ry 
 Optimized for a Real-space Cutoff    1.96 Angstroem

   l    n(q)    QCUT    max X(q) W(low)/X(q) W(high)/X(q)  e(spline) 
   0     10     8.761     8.406    0.17E-04    0.25E-05    0.14E-07
   0     10     8.761    10.301    0.37E-04    0.12E-04    0.59E-07
   1     10     8.761     4.485    0.11E-05    0.41E-05    0.34E-07
   1     10     8.761    11.894    0.99E-05    0.55E-04    0.20E-06
   2      9     8.761     4.489    0.16E-04    0.99E-05    0.66E-07
   2      9     8.761    42.100    0.20E-03    0.66E-04    0.63E-06
 PAW_PBE Mg 05Jan2001                   :
 energy of atom  1       EATOM=  -23.0029
 kinetic energy error for atom=    0.0002 (will be added to EATOM!!)
 PAW_PBE Zn 06Sep2000                   :
 energy of atom  2       EATOM=-1749.0928
 kinetic energy error for atom=    0.0293 (will be added to EATOM!!)
 PAW_PBE Y_sv 06Sep2000                 :
 energy of atom  3       EATOM=-1046.2256
 kinetic energy error for atom=    0.0083 (will be added to EATOM!!)
 
 EXHCAR: internal setup
 exchange correlation table for  LEXCH =        8
   RHO(1)=    0.500       N(1)  =     2000
   RHO(2)=  100.500       N(2)  =     4000
 
 POSCAR: New structure                           
  positions in direct lattice
  velocities in cartesian coordinates
 


--------------------------------------------------------------------------------------------------------


 ion  position               nearest neighbor table
   1  1.000  0.165  0.999-  12 3.17   2 3.17  14 3.18  21 3.18   7 3.19   5 3.19 262 3.21 270 3.22
                           263 3.22  11 3.24   4 3.24 280 3.56
   2  0.165  1.000  0.999-  12 3.17   1 3.17  15 3.18  17 3.18   3 3.19   5 3.19 264 3.21 265 3.22
                           263 3.22   8 3.24   6 3.24 280 3.56
   3  0.000  0.668  0.999-  23 3.14  17 3.14 266 3.17 273 3.17 265 3.18   4 3.18  11 3.18   2 3.19
                            12 3.19   8 3.24  10 3.24  13 3.26
   4  0.165  0.502  0.999-  14 3.12  11 3.17   3 3.18 266 3.18 262 3.19   8 3.20   9 3.20 267 3.21
                            18 3.21  13 3.22   1 3.24   5 3.24
   5  0.332  0.332  0.999-  15 3.14  14 3.14 268 3.17 267 3.17 263 3.18  10 3.18   9 3.18   2 3.19
                             1 3.19   6 3.24   4 3.24  19 3.26
   6  0.502  0.165  0.999-  15 3.12   8 3.17   7 3.18 269 3.18 264 3.19  11 3.20  10 3.20 268 3.21
                            20 3.21  16 3.22   2 3.24   5 3.24
   7  0.668  0.000  0.999-  22 3.14  21 3.14 269 3.17 271 3.17 270 3.18   6 3.18   8 3.18   1 3.19
                            12 3.19  11 3.24   9 3.24  16 3.26
   8  0.337  0.835  0.999-  17 3.12   6 3.17   7 3.18 271 3.19 264 3.19   9 3.20   4 3.20 266 3.21
                            18 3.21  16 3.22   2 3.24   3 3.24
   9  0.498  0.663  0.999-  22 3.12  10 3.17   5 3.18 267 3.19 272 3.19   8 3.20   4 3.20 271 3.21
                            18 3.21  19 3.22  12 3.24   7 3.24
  10  0.663  0.498  0.999-  23 3.12   9 3.17   5 3.18 268 3.19 272 3.19  11 3.20   6 3.20 273 3.21
                            20 3.21  19 3.22  12 3.24   3 3.24
  11  0.835  0.337  0.999-  21 3.12   4 3.17   3 3.18 273 3.19 262 3.19  10 3.20   6 3.20 269 3.21
                            20 3.21  13 3.22   1 3.24   7 3.24
  12  0.835  0.835  0.999-   2 3.17   1 3.17  23 3.18  22 3.18   3 3.19   7 3.19 272 3.21 270 3.22
                           265 3.22   9 3.24  10 3.24 280 3.56
  13  1.000  0.501  0.042-  23 3.13  17 3.13  29 3.13  24 3.13  14 3.20  21 3.20  20 3.20  18 3.20
                            11 3.22   4 3.22   3 3.26 281 3.65
  14  0.173  0.342  0.040- 274 2.74   4 3.12  18 3.12  19 3.13   5 3.14   1 3.18  13 3.20  15 3.23
                            24 3.32 280 3.33  21 3.33 282 3.35
  15  0.342  0.173  0.040- 275 2.74   6 3.12  20 3.12  19 3.13   5 3.14   2 3.18  16 3.20  14 3.23
                            25 3.32 280 3.33  17 3.33 282 3.35
  16  0.501  1.000  0.042-  22 3.13  21 3.13  26 3.13  25 3.13  15 3.20  17 3.20  18 3.20  20 3.20
                             8 3.22   6 3.22   7 3.26 283 3.65
  17  0.168  0.827  0.040- 275 2.74   8 3.12  18 3.12  13 3.13   3 3.14   2 3.18  16 3.20  23 3.23
                            26 3.32 280 3.33  15 3.33 281 3.35
  18  0.333  0.667  0.041-  17 3.12  22 3.12  14 3.12  27 3.16  24 3.16  26 3.16  16 3.20  19 3.20
                            13 3.20   8 3.21   9 3.21   4 3.21
  19  0.499  0.499  0.042-  14 3.13  15 3.13  28 3.13  27 3.13  22 3.20  23 3.20  18 3.20  20 3.20
                            10 3.22   9 3.22   5 3.26 282 3.66
  20  0.667  0.333  0.041-  21 3.12  23 3.12  15 3.12  28 3.16  25 3.16  29 3.16  13 3.20  19 3.20
                            16 3.20  11 3.21  10 3.21   6 3.21
  21  0.827  0.168  0.040- 274 2.74  11 3.12  20 3.12  16 3.13   7 3.14   1 3.18  13 3.20  22 3.23
                            29 3.32 280 3.33  14 3.33 283 3.35
  22  0.658  0.832  0.040- 276 2.74   9 3.12  18 3.12  16 3.13   7 3.14  12 3.18  19 3.20  21 3.23
                            27 3.32 280 3.33  23 3.33 283 3.35
  23  0.832  0.658  0.040- 276 2.74  10 3.12  20 3.12  13 3.13   3 3.14  12 3.18  19 3.20  17 3.23
                            28 3.32 280 3.33  22 3.33 281 3.35
  24  0.166  0.512  0.083- 274 2.77  30 3.09  27 3.10  26 3.10  13 3.13  18 3.16  29 3.18  14 3.32
                           284 3.32  31 3.34 282 3.38 281 3.54
  25  0.512  0.166  0.083- 275 2.77  33 3.09  28 3.10  29 3.10  16 3.13  20 3.16  26 3.18  15 3.32
                           285 3.32  32 3.34 282 3.38 283 3.54
  26  0.346  0.834  0.083- 275 2.77  34 3.09  24 3.10  27 3.10  16 3.13  18 3.16  25 3.18  17 3.32
                           285 3.32  30 3.34 281 3.39 283 3.54
  27  0.488  0.654  0.083- 276 2.77  31 3.09  24 3.10  26 3.10  19 3.13  18 3.16  28 3.18  22 3.32
                           286 3.32  34 3.34 283 3.38 282 3.54
  28  0.654  0.488  0.083- 276 2.77  32 3.09  25 3.10  29 3.10  19 3.13  20 3.16  27 3.18  23 3.32
                           286 3.32  35 3.34 281 3.38 282 3.54
  29  0.834  0.346  0.083- 274 2.77  35 3.09  25 3.10  28 3.10  13 3.13  20 3.16  24 3.18  21 3.32
                           284 3.32  33 3.34 283 3.39 281 3.54
  30  0.166  0.653  0.126- 278 2.77  34 3.09  31 3.09  24 3.09  36 3.14  41 3.16  35 3.19  40 3.33
                           281 3.33  26 3.34 285 3.39 284 3.53
  31  0.347  0.513  0.126- 277 2.77  34 3.09  27 3.09  30 3.09  42 3.14  41 3.16  32 3.19  37 3.33
                           282 3.33  24 3.34 284 3.39 286 3.53
  32  0.513  0.347  0.126- 277 2.77  35 3.09  28 3.09  33 3.09  42 3.14  43 3.16  31 3.19  38 3.33
                           282 3.33  25 3.34 285 3.39 286 3.53
  33  0.653  0.166  0.126- 279 2.77  35 3.09  32 3.09  25 3.09  39 3.14  43 3.16  34 3.19  44 3.33
                           283 3.33  29 3.34 284 3.39 285 3.53
  34  0.487  0.834  0.126- 279 2.77  31 3.09  30 3.09  26 3.09  39 3.14  41 3.16  33 3.19  45 3.33
                           283 3.33  27 3.34 286 3.39 285 3.53
  35  0.834  0.487  0.126- 278 2.77  32 3.09  33 3.09  29 3.09  36 3.14  43 3.16  30 3.19  46 3.33
                           281 3.33  28 3.34 286 3.39 284 3.53
  36  0.000  0.500  0.167-  37 3.13  44 3.13  35 3.14  30 3.14  46 3.20  40 3.20  41 3.20  43 3.20
                            51 3.21  58 3.21  47 3.25 284 3.67
  37  0.168  0.341  0.169- 277 2.75  52 3.12  41 3.13  47 3.13  36 3.13  48 3.15  42 3.20  44 3.22
                            31 3.33 287 3.33  38 3.34 284 3.35
  38  0.341  0.168  0.169- 277 2.75  53 3.12  43 3.13  49 3.13  39 3.13  48 3.15  42 3.20  40 3.22
                            32 3.33 287 3.33  37 3.34 285 3.35
  39  0.500  0.000  0.167-  38 3.13  40 3.13  34 3.14  33 3.14  45 3.20  44 3.20  43 3.20  41 3.20
                            54 3.21  56 3.21  49 3.25 285 3.67
  40  0.174  0.832  0.169- 278 2.75  51 3.12  41 3.13  49 3.13  39 3.13  50 3.15  36 3.20  38 3.22
                            30 3.33 287 3.33  46 3.33 285 3.35
  41  0.333  0.667  0.168-  40 3.13  37 3.13  45 3.13  34 3.16  31 3.16  30 3.16  51 3.20  56 3.20
                            52 3.20  36 3.20  39 3.20  42 3.20
  42  0.500  0.500  0.167-  45 3.13  46 3.13  31 3.14  32 3.14  37 3.20  38 3.20  41 3.20  43 3.20
                            52 3.21  53 3.21  57 3.25 286 3.67
  43  0.667  0.333  0.168-  44 3.13  38 3.13  46 3.13  35 3.16  32 3.16  33 3.16  54 3.20  58 3.20
                            53 3.20  39 3.20  36 3.20  42 3.20
  44  0.832  0.174  0.169- 279 2.75  54 3.12  43 3.13  47 3.13  36 3.13  55 3.15  39 3.20  37 3.22
                            33 3.33 287 3.33  45 3.33 284 3.35
  45  0.659  0.826  0.169- 279 2.75  56 3.12  41 3.13  57 3.13  42 3.13  55 3.15  39 3.20  46 3.22
                            34 3.33 287 3.33  44 3.33 286 3.35
  46  0.826  0.659  0.169- 278 2.75  58 3.12  43 3.13  57 3.13  42 3.13  50 3.15  36 3.20  45 3.22
                            35 3.33 287 3.33  40 3.33 286 3.35
  47  1.000  0.332  0.210-  37 3.13  44 3.13  68 3.15  61 3.15  60 3.17  58 3.18  51 3.18  55 3.19
                            48 3.19  54 3.23  52 3.23  36 3.25
  48  0.164  0.164  0.209-  37 3.15  38 3.15  55 3.16  50 3.16  47 3.19  49 3.19  59 3.20  61 3.21
                            62 3.21  52 3.24  53 3.24 287 3.57
  49  0.332  1.000  0.210-  38 3.13  40 3.13  64 3.15  62 3.15  63 3.17  56 3.18  54 3.18  50 3.19
                            48 3.19  51 3.23  53 3.23  39 3.25
  50  0.000  0.836  0.209-  46 3.15  40 3.15  55 3.16  48 3.16  57 3.19  49 3.19  59 3.20  64 3.21
                            70 3.21  58 3.24  51 3.24 287 3.57
  51  0.166  0.664  0.210-  40 3.12  65 3.16  60 3.17  58 3.18  47 3.18  64 3.19  52 3.19  56 3.19
                            41 3.20  36 3.21  49 3.23  50 3.24
  52  0.336  0.502  0.210-  37 3.12  65 3.16  66 3.17  53 3.18  57 3.18  61 3.19  51 3.19  56 3.19
                            41 3.20  42 3.21  47 3.23  48 3.24
  53  0.502  0.336  0.210-  38 3.12  67 3.16  66 3.17  52 3.18  57 3.18  62 3.19  54 3.19  58 3.19
                            43 3.20  42 3.21  49 3.23  48 3.24
  54  0.664  0.166  0.210-  44 3.12  67 3.16  63 3.17  56 3.18  49 3.18  68 3.19  53 3.19  58 3.19
                            43 3.20  39 3.21  47 3.23  55 3.24
  55  0.836  0.000  0.209-  45 3.15  44 3.15  50 3.16  48 3.16  57 3.19  47 3.19  59 3.20  68 3.21
                            69 3.21  56 3.24  54 3.24 287 3.57
  56  0.498  0.834  0.210-  45 3.12  65 3.16  63 3.17  54 3.18  49 3.18  69 3.19  51 3.19  52 3.19
                            41 3.20  39 3.21  57 3.23  55 3.24
  57  0.668  0.668  0.210-  45 3.13  46 3.13  69 3.15  70 3.15  66 3.17  52 3.18  53 3.18  55 3.19
                            50 3.19  56 3.23  58 3.23  42 3.25
  58  0.834  0.498  0.210-  46 3.12  67 3.16  60 3.17  51 3.18  47 3.18  70 3.19  54 3.19  53 3.19
                            43 3.20  36 3.21  57 3.23  50 3.24
  59  1.000  1.000  0.251-  79 3.17  74 3.17  72 3.18  70 3.19  69 3.19  64 3.19  68 3.19  61 3.19
                            62 3.19  55 3.20  50 3.20  48 3.20
  60  0.000  0.500  0.251-  75 3.16  82 3.16  47 3.17  71 3.17  58 3.17  51 3.17  67 3.20  65 3.20
                            64 3.20  70 3.20  68 3.21  61 3.21
  61  0.167  0.332  0.251-  47 3.15  72 3.17  76 3.18  62 3.18  71 3.18  52 3.19  59 3.19  66 3.20
                            68 3.21  48 3.21  60 3.21  65 3.21
  62  0.332  0.167  0.251-  49 3.15  72 3.17  77 3.18  61 3.18  73 3.18  53 3.19  59 3.19  66 3.20
                            64 3.21  48 3.21  63 3.21  67 3.21
  63  0.500  0.000  0.251-  78 3.16  80 3.16  49 3.17  73 3.17  56 3.17  54 3.17  65 3.20  67 3.20
                            68 3.20  69 3.20  64 3.21  62 3.21
  64  0.166  0.833  0.251-  49 3.15  74 3.17  75 3.18  70 3.18  73 3.18  51 3.19  59 3.19  60 3.20
                            62 3.21  50 3.21  63 3.21  65 3.21
  65  0.333  0.667  0.251-  51 3.16  52 3.16  56 3.16  76 3.18  75 3.18  80 3.18  63 3.20  60 3.20
                            66 3.20  64 3.21  61 3.21  69 3.21
  66  0.500  0.500  0.251-  76 3.16  77 3.16  57 3.17  81 3.17  52 3.17  53 3.17  65 3.20  67 3.20
                            62 3.20  61 3.20  69 3.21  70 3.21
  67  0.667  0.333  0.251-  54 3.16  53 3.16  58 3.16  77 3.18  78 3.18  82 3.18  60 3.20  63 3.20
                            66 3.20  68 3.21  62 3.21  70 3.21
  68  0.833  0.166  0.251-  47 3.15  79 3.17  78 3.18  69 3.18  71 3.18  54 3.19  59 3.19  63 3.20
                            61 3.21  55 3.21  60 3.21  67 3.21
  69  0.668  0.835  0.251-  57 3.15  79 3.17  80 3.18  68 3.18  81 3.18  56 3.19  59 3.19  63 3.20
                            70 3.21  55 3.21  66 3.21  65 3.21
  70  0.835  0.668  0.251-  57 3.15  74 3.17  82 3.18  64 3.18  81 3.18  58 3.19  59 3.19  60 3.20
                            69 3.21  50 3.21  66 3.21  67 3.21
  71  1.000  0.333  0.292-  60 3.17  85 3.17  92 3.17  84 3.18  61 3.18  68 3.18  79 3.19  72 3.19
                            78 3.20  76 3.20  82 3.21  75 3.21
  72  0.167  0.167  0.292-  85 3.17  86 3.17  61 3.17  62 3.17  83 3.17  59 3.18  71 3.19  73 3.19
                            79 3.20  74 3.20  76 3.20  77 3.20
  73  0.333  1.000  0.292-  63 3.17  86 3.17  88 3.17  87 3.18  62 3.18  64 3.18  74 3.19  72 3.19
                            75 3.20  77 3.20  80 3.21  78 3.21
  74  0.000  0.833  0.292-  94 3.17  88 3.17  70 3.17  59 3.17  64 3.17  83 3.17  73 3.19  81 3.19
                            79 3.20  72 3.20  75 3.20  82 3.20
  75  0.167  0.667  0.292-  60 3.16  89 3.18  64 3.18  88 3.18  84 3.18  65 3.18  82 3.20  74 3.20
                            73 3.20  76 3.20  80 3.20  71 3.21
  76  0.333  0.500  0.292-  66 3.16  90 3.17  89 3.17  61 3.18  85 3.18  65 3.18  77 3.20  72 3.20
                            80 3.20  75 3.20  71 3.20  81 3.21
  77  0.500  0.333  0.292-  66 3.16  90 3.17  91 3.17  62 3.18  86 3.18  67 3.18  76 3.20  72 3.20
                            82 3.20  78 3.20  73 3.20  81 3.21
  78  0.667  0.167  0.292-  63 3.16  91 3.18  68 3.18  92 3.18  87 3.18  67 3.18  80 3.20  79 3.20
                            71 3.20  77 3.20  82 3.20  73 3.21
  79  0.833  0.000  0.292-  93 3.17  92 3.17  69 3.17  59 3.17  68 3.17  83 3.17  71 3.19  81 3.19
                            74 3.20  72 3.20  78 3.20  80 3.20
  80  0.500  0.833  0.292-  63 3.16  89 3.17  93 3.18  69 3.18  87 3.18  65 3.18  78 3.20  76 3.20
                            81 3.20  75 3.20  79 3.20  73 3.21
  81  0.668  0.668  0.292-  66 3.17  93 3.17  94 3.17  90 3.17  69 3.18  70 3.18  79 3.19  74 3.19
                            80 3.20  82 3.20  76 3.21  77 3.21
  82  0.833  0.500  0.292-  60 3.16  91 3.17  94 3.18  70 3.18  84 3.18  67 3.18  75 3.20  77 3.20
                            81 3.20  78 3.20  74 3.20  71 3.21
  83  0.000  0.000  0.334- 104 3.17  72 3.17 106 3.17 105 3.17  79 3.17  74 3.17  85 3.20  86 3.20
                            88 3.20  92 3.20  94 3.20  93 3.20
  84  0.000  0.500  0.334- 100 3.18  95 3.18  71 3.18 101 3.18  82 3.18  75 3.18  92 3.20  85 3.20
                            91 3.20  89 3.20  88 3.20  94 3.20
  85  0.167  0.333  0.334-  72 3.17  71 3.17  96 3.17  76 3.18 104 3.18 101 3.18  84 3.20  86 3.20
                            89 3.20  90 3.20  83 3.20  92 3.20
  86  0.333  0.167  0.334-  72 3.17  73 3.17  97 3.17  77 3.18 104 3.18 102 3.18  87 3.20  85 3.20
                            91 3.20  90 3.20  83 3.20  88 3.20
  87  0.500  0.000  0.334-  99 3.18  98 3.18  73 3.18 102 3.18  80 3.18  78 3.18  88 3.20  86 3.20
                            89 3.20  91 3.20  92 3.20  93 3.20
  88  0.167  0.833  0.334-  73 3.17  74 3.17  95 3.17  75 3.18 102 3.18 105 3.18  87 3.20  89 3.20
                            94 3.20  83 3.20  84 3.20  86 3.20
  89  0.333  0.667  0.334-  80 3.17  76 3.17  75 3.18  96 3.18  99 3.18  95 3.18  93 3.20  88 3.20
                            85 3.20  90 3.20  87 3.20  84 3.20
  90  0.500  0.500  0.334-  81 3.17  76 3.17  77 3.17  96 3.18  97 3.18 103 3.18  93 3.20  94 3.20
                            89 3.20  91 3.20  86 3.20  85 3.20
  91  0.667  0.333  0.334-  82 3.17  77 3.17  78 3.18  97 3.18 100 3.18  98 3.18  94 3.20  92 3.20
                            86 3.20  90 3.20  84 3.20  87 3.20
  92  0.833  0.167  0.334-  71 3.17  79 3.17  98 3.17  78 3.18 101 3.18 106 3.18  84 3.20  91 3.20
                            93 3.20  83 3.20  87 3.20  85 3.20
  93  0.667  0.833  0.334-  81 3.17  79 3.17 103 3.18  99 3.18  80 3.18 106 3.18  90 3.20  89 3.20
                            92 3.20  87 3.20  83 3.20  94 3.20
  94  0.833  0.667  0.334-  81 3.17  74 3.17 103 3.18 100 3.18  82 3.18 105 3.18  90 3.20  91 3.20
                            88 3.20  84 3.20  83 3.20  93 3.20
  95  0.166  0.667  0.375-  88 3.17  84 3.18 113 3.18 112 3.18  89 3.18 108 3.19 100 3.20 105 3.20
                           102 3.20 101 3.20  96 3.20  99 3.20
  96  0.333  0.500  0.375-  85 3.17 114 3.18  89 3.18  90 3.18 113 3.19 109 3.19  97 3.20 104 3.20
                           103 3.20 101 3.20  99 3.20  95 3.20
  97  0.500  0.333  0.375-  86 3.17 114 3.18  91 3.18  90 3.18 115 3.19 110 3.19  96 3.20 104 3.20
                           103 3.20 102 3.20 100 3.20  98 3.20
  98  0.667  0.166  0.375-  92 3.17  87 3.18 115 3.18 116 3.18  91 3.18 111 3.19  99 3.20 106 3.20
                           101 3.20 102 3.20  97 3.20 100 3.20
  99  0.500  0.833  0.375-  93 3.18  87 3.18  89 3.18 113 3.18 117 3.18 111 3.19  98 3.20 103 3.20
                           102 3.20 106 3.20  96 3.20  95 3.20
 100  0.833  0.500  0.375-  94 3.18  84 3.18  91 3.18 115 3.18 118 3.18 108 3.19  95 3.20 103 3.20
                           101 3.20 105 3.20  97 3.20  98 3.20
 101  1.000  0.333  0.375-  84 3.18  92 3.18 116 3.18 109 3.18  85 3.18 108 3.18 106 3.20  98 3.20
                           100 3.20 104 3.20  95 3.20  96 3.20
 102  0.333  1.000  0.375-  87 3.18  88 3.18 112 3.18 110 3.18  86 3.18 111 3.18 105 3.20  95 3.20
                            99 3.20 104 3.20  98 3.20  97 3.20
 103  0.667  0.667  0.375- 114 3.17  93 3.18  94 3.18  90 3.18 117 3.18 118 3.18  99 3.20 100 3.20
                            96 3.20  97 3.20 106 3.20 105 3.20
 104  0.167  0.167  0.375-  83 3.17 109 3.18 110 3.18  85 3.18  86 3.18 107 3.18 106 3.20 105 3.20
                            96 3.20  97 3.20 101 3.20 102 3.20
 105  0.000  0.834  0.375-  83 3.17 118 3.18 112 3.18  88 3.18 107 3.18  94 3.18 104 3.20 106 3.20
                           102 3.20  95 3.20 103 3.20 100 3.20
 106  0.834  0.000  0.375-  83 3.17 117 3.18 116 3.18  92 3.18 107 3.18  93 3.18 104 3.20 105 3.20
                           101 3.20  98 3.20 103 3.20  99 3.20
 107  0.000  0.000  0.417- 106 3.18 105 3.18 104 3.18 130 3.18 129 3.18 128 3.19 109 3.20 110 3.20
                           112 3.20 116 3.20 118 3.20 117 3.20
 108  1.000  0.500  0.417- 101 3.18 119 3.18 125 3.18  95 3.19 124 3.19 100 3.19 118 3.20 115 3.20
                           112 3.20 113 3.20 116 3.20 109 3.20
 109  0.167  0.333  0.417- 120 3.18 101 3.18 104 3.18 128 3.18  96 3.19 125 3.19 107 3.20 113 3.20
                           116 3.20 108 3.20 114 3.20 110 3.20
 110  0.333  0.167  0.417- 121 3.18 102 3.18 104 3.18 128 3.18  97 3.19 126 3.19 107 3.20 115 3.20
                           112 3.20 111 3.20 114 3.20 109 3.20
 111  0.500  1.000  0.417- 102 3.18 122 3.18 126 3.18  98 3.19 123 3.19  99 3.19 117 3.20 113 3.20
                           116 3.20 115 3.20 112 3.20 110 3.20
 112  0.167  0.833  0.417- 105 3.18 102 3.18  95 3.18 129 3.19 119 3.19 126 3.19 118 3.20 110 3.20
                           113 3.20 107 3.20 108 3.20 111 3.20
 113  0.333  0.667  0.416- 120 3.18  95 3.18  99 3.18  96 3.19 123 3.19 119 3.19 109 3.20 111 3.20
                           112 3.20 108 3.20 114 3.20 117 3.20
 114  0.500  0.500  0.416- 103 3.17  96 3.18  97 3.18 120 3.19 121 3.19 127 3.19 109 3.20 110 3.20
                           113 3.20 115 3.20 117 3.20 118 3.20
 115  0.667  0.333  0.416- 121 3.18  98 3.18 100 3.18  97 3.19 124 3.19 122 3.19 110 3.20 108 3.20
                           116 3.20 111 3.20 114 3.20 118 3.20
 116  0.833  0.167  0.417- 106 3.18 101 3.18  98 3.18 130 3.19 122 3.19 125 3.19 117 3.20 109 3.20
                           115 3.20 107 3.20 111 3.20 108 3.20
 117  0.667  0.833  0.417- 127 3.18 106 3.18  99 3.18 123 3.18 103 3.18 130 3.19 116 3.20 118 3.20
                           111 3.20 107 3.20 114 3.20 113 3.20
 118  0.833  0.667  0.417- 127 3.18 105 3.18 100 3.18 124 3.18 103 3.18 129 3.19 112 3.20 117 3.20
                           108 3.20 107 3.20 114 3.20 115 3.20
 119  0.166  0.666  0.458- 139 3.18 133 3.18 108 3.18 131 3.19 112 3.19 113 3.19 125 3.19 120 3.20
                           124 3.20 123 3.20 129 3.21 126 3.21
 120  0.333  0.500  0.458- 109 3.18 137 3.18 113 3.18 114 3.19 128 3.19 123 3.20 121 3.20 127 3.20
                           140 3.20 133 3.20 125 3.20 119 3.20
 121  0.500  0.333  0.458- 110 3.18 137 3.18 115 3.18 114 3.19 128 3.19 124 3.20 120 3.20 127 3.20
                           141 3.20 134 3.20 126 3.20 122 3.20
 122  0.666  0.166  0.458- 138 3.18 134 3.18 111 3.18 132 3.19 116 3.19 115 3.19 126 3.19 121 3.20
                           123 3.20 124 3.20 130 3.21 125 3.21
 123  0.500  0.833  0.458- 117 3.18 132 3.19 111 3.19 113 3.19 135 3.19 133 3.19 127 3.19 120 3.20
                           122 3.20 130 3.20 119 3.20 126 3.20
 124  0.833  0.500  0.458- 118 3.18 131 3.19 108 3.19 115 3.19 136 3.19 134 3.19 127 3.19 121 3.20
                           119 3.20 129 3.20 122 3.20 125 3.20
 125  0.000  0.334  0.458- 138 3.18 140 3.18 108 3.18 131 3.19 109 3.19 116 3.19 119 3.19 120 3.20
                           128 3.20 124 3.20 130 3.21 122 3.21
 126  0.334  0.000  0.458- 139 3.18 141 3.18 111 3.18 132 3.19 110 3.19 112 3.19 122 3.19 121 3.20
                           128 3.20 123 3.20 129 3.21 119 3.21
 127  0.666  0.666  0.458- 117 3.18 118 3.18 137 3.18 114 3.19 123 3.19 124 3.19 120 3.20 121 3.20
                           135 3.20 136 3.20 130 3.20 129 3.20
 128  0.167  0.167  0.458- 109 3.18 110 3.18 142 3.18 107 3.19 140 3.19 141 3.19 120 3.19 121 3.19
                           125 3.20 126 3.20 130 3.20 129 3.20
 129  1.000  0.834  0.458- 139 3.18 136 3.18 107 3.18 142 3.19 118 3.19 112 3.19 130 3.19 127 3.20
                           124 3.20 128 3.20 126 3.21 119 3.21
 130  0.834  1.000  0.458- 138 3.18 135 3.18 107 3.18 142 3.19 117 3.19 116 3.19 129 3.19 127 3.20
                           123 3.20 128 3.20 125 3.21 122 3.21
 131  0.999  0.500  0.500- 143 3.18 149 3.18 124 3.19 125 3.19 119 3.19 134 3.19 136 3.19 138 3.20
                           139 3.20 133 3.21 140 3.21 148 3.24
 132  0.500  0.999  0.500- 146 3.18 150 3.18 123 3.19 126 3.19 122 3.19 133 3.19 135 3.19 139 3.20
                           138 3.20 134 3.21 141 3.21 147 3.24
 133  0.333  0.667  0.500- 144 3.15 119 3.18 132 3.19 123 3.19 139 3.20 147 3.20 140 3.20 120 3.20
                           137 3.21 131 3.21 143 3.21 135 3.21
 134  0.667  0.333  0.500- 145 3.15 122 3.18 131 3.19 124 3.19 138 3.20 148 3.20 141 3.20 121 3.20
                           137 3.21 132 3.21 146 3.21 136 3.21
 135  0.667  0.834  0.500- 151 3.15 130 3.18 123 3.19 132 3.19 138 3.20 147 3.20 136 3.20 127 3.20
                           137 3.21 154 3.21 142 3.21 133 3.21
 136  0.834  0.667  0.500- 151 3.15 129 3.18 124 3.19 131 3.19 139 3.20 148 3.20 135 3.20 127 3.20
                           137 3.21 153 3.21 142 3.21 134 3.21
 137  0.500  0.500  0.499- 127 3.18 120 3.18 121 3.18 144 3.20 145 3.20 151 3.20 140 3.21 141 3.21
                           133 3.21 134 3.21 135 3.21 136 3.21
 138  0.833  0.167  0.500- 125 3.18 154 3.18 122 3.18 130 3.18 146 3.18 149 3.18 135 3.20 140 3.20
                           134 3.20 142 3.20 131 3.20 132 3.20
 139  0.167  0.833  0.500- 126 3.18 153 3.18 119 3.18 129 3.18 143 3.18 150 3.18 136 3.20 141 3.20
                           133 3.20 142 3.20 132 3.20 131 3.20
 140  0.166  0.333  0.500- 144 3.15 125 3.18 142 3.19 128 3.19 152 3.20 138 3.20 120 3.20 133 3.20
                           137 3.21 131 3.21 149 3.21 141 3.21
 141  0.333  0.166  0.500- 145 3.15 126 3.18 142 3.19 128 3.19 152 3.20 139 3.20 121 3.20 134 3.20
                           137 3.21 132 3.21 150 3.21 140 3.21
 142  0.001  0.001  0.500- 154 3.18 153 3.18 128 3.18 130 3.19 129 3.19 140 3.19 141 3.19 139 3.20
                           138 3.20 136 3.21 135 3.21 152 3.24
 143  0.162  0.666  0.541- 150 3.17 153 3.17 131 3.18 139 3.18 149 3.19 160 3.20 159 3.20 155 3.20
                           133 3.21 144 3.21 148 3.22 147 3.24
 144  0.330  0.500  0.541- 147 3.15 152 3.15 133 3.15 140 3.15 137 3.20 149 3.21 143 3.21 156 3.23
                           160 3.23 288 3.25 145 3.26 151 3.26
 145  0.500  0.330  0.541- 148 3.15 152 3.15 134 3.15 141 3.15 137 3.20 150 3.21 146 3.21 157 3.23
                           162 3.23 288 3.25 144 3.26 151 3.26
 146  0.666  0.162  0.541- 149 3.17 154 3.17 132 3.18 138 3.18 150 3.19 162 3.20 163 3.20 158 3.20
                           134 3.21 145 3.21 147 3.22 148 3.24
 147  0.500  0.827  0.542- 151 3.15 144 3.15 160 3.19 164 3.19 133 3.20 135 3.20 158 3.20 146 3.22
                           150 3.22 143 3.24 154 3.24 132 3.24
 148  0.827  0.500  0.542- 151 3.15 145 3.15 162 3.19 165 3.19 134 3.20 136 3.20 155 3.20 143 3.22
                           149 3.22 146 3.24 153 3.24 131 3.24
 149  0.996  0.334  0.541- 154 3.17 146 3.17 131 3.18 138 3.18 143 3.19 163 3.19 156 3.19 155 3.20
                           144 3.21 140 3.21 148 3.22 152 3.24
 150  0.334  0.996  0.541- 153 3.17 143 3.17 132 3.18 139 3.18 146 3.19 157 3.19 159 3.19 158 3.20
                           145 3.21 141 3.21 147 3.22 152 3.24
 151  0.670  0.670  0.541- 147 3.15 148 3.15 135 3.15 136 3.15 137 3.20 154 3.21 153 3.21 164 3.23
                           165 3.23 288 3.25 144 3.26 145 3.26
 152  0.172  0.172  0.542- 144 3.15 145 3.15 156 3.19 157 3.19 140 3.20 141 3.20 161 3.20 154 3.22
                           153 3.22 149 3.24 150 3.24 142 3.24
 153  0.004  0.838  0.541- 150 3.17 143 3.17 142 3.18 139 3.18 154 3.19 165 3.20 159 3.20 161 3.20
                           136 3.21 151 3.21 152 3.22 148 3.24
 154  0.838  0.004  0.541- 149 3.17 146 3.17 142 3.18 138 3.18 153 3.19 164 3.20 163 3.20 161 3.20
                           135 3.21 151 3.21 152 3.22 147 3.24
 155  0.997  0.500  0.583- 160 3.17 156 3.17 162 3.19 165 3.19 171 3.20 149 3.20 166 3.20 148 3.20
                           175 3.20 143 3.20 163 3.20 159 3.20
 156  0.162  0.335  0.583- 163 3.16 155 3.17 160 3.17 172 3.18 152 3.19 161 3.19 149 3.19 175 3.19
                           167 3.23 144 3.23 288 3.25 157 3.32
 157  0.335  0.162  0.583- 159 3.16 158 3.17 162 3.17 172 3.18 152 3.19 161 3.19 150 3.19 176 3.19
                           168 3.23 145 3.23 288 3.25 156 3.32
 158  0.500  0.997  0.583- 162 3.17 157 3.17 160 3.19 164 3.19 170 3.20 150 3.20 169 3.20 147 3.20
                           176 3.20 146 3.20 159 3.20 163 3.20
 159  0.167  0.833  0.583- 165 3.15 157 3.16 160 3.16 150 3.19 173 3.19 166 3.20 176 3.20 153 3.20
                           143 3.20 161 3.20 158 3.20 155 3.20
 160  0.327  0.665  0.583- 159 3.16 155 3.17 156 3.17 170 3.18 147 3.19 158 3.19 166 3.19 143 3.20
                           167 3.23 144 3.23 288 3.25 164 3.32
 161  0.003  0.003  0.583- 165 3.17 164 3.17 156 3.19 157 3.19 172 3.20 174 3.20 173 3.20 152 3.20
                           154 3.20 153 3.20 159 3.20 163 3.20
 162  0.665  0.327  0.583- 163 3.16 158 3.17 157 3.17 171 3.18 148 3.19 155 3.19 169 3.19 146 3.20
                           168 3.23 145 3.23 288 3.25 165 3.32
 163  0.833  0.167  0.583- 164 3.15 156 3.16 162 3.16 149 3.19 174 3.19 169 3.20 175 3.20 154 3.20
                           146 3.20 161 3.20 155 3.20 158 3.20
 164  0.673  0.838  0.583- 163 3.15 161 3.17 165 3.17 170 3.18 147 3.19 158 3.19 174 3.19 154 3.20
                           177 3.23 151 3.23 288 3.25 160 3.32
 165  0.838  0.673  0.583- 159 3.15 161 3.17 164 3.17 171 3.18 148 3.19 155 3.19 173 3.19 153 3.20
                           177 3.23 151 3.23 288 3.25 162 3.32
 166  0.162  0.666  0.625- 176 3.17 173 3.17 179 3.18 183 3.18 175 3.19 160 3.19 159 3.20 155 3.20
                           184 3.21 167 3.21 171 3.22 170 3.24
 167  0.331  0.500  0.626- 170 3.15 172 3.15 184 3.15 180 3.15 185 3.20 175 3.21 166 3.21 160 3.23
                           156 3.23 288 3.25 168 3.25 177 3.26
 168  0.500  0.331  0.626- 171 3.15 172 3.15 186 3.15 181 3.15 185 3.20 176 3.21 169 3.21 162 3.23
                           157 3.23 288 3.25 167 3.25 177 3.26
 169  0.666  0.162  0.625- 175 3.17 174 3.17 182 3.18 187 3.18 176 3.19 162 3.19 163 3.20 158 3.20
                           186 3.21 168 3.21 170 3.22 171 3.24
 170  0.500  0.827  0.625- 177 3.15 167 3.15 160 3.18 164 3.18 184 3.20 188 3.20 158 3.20 169 3.22
                           176 3.22 166 3.24 182 3.24 174 3.24
 171  0.827  0.500  0.625- 177 3.15 168 3.15 162 3.18 165 3.18 186 3.20 189 3.20 155 3.20 166 3.22
                           175 3.22 169 3.24 179 3.24 173 3.24
 172  0.172  0.172  0.625- 167 3.15 168 3.15 156 3.18 157 3.18 180 3.20 181 3.20 161 3.20 174 3.22
                           173 3.22 175 3.24 176 3.24 178 3.24
 173  0.004  0.838  0.625- 176 3.17 166 3.17 178 3.17 183 3.18 174 3.19 165 3.19 159 3.19 161 3.20
                           189 3.21 177 3.21 172 3.22 171 3.24
 174  0.838  0.004  0.625- 175 3.17 169 3.17 178 3.17 187 3.18 173 3.19 164 3.19 163 3.19 161 3.20
                           188 3.21 177 3.21 172 3.22 170 3.24
 175  0.996  0.334  0.625- 174 3.17 169 3.17 179 3.17 187 3.18 166 3.19 156 3.19 163 3.20 155 3.20
                           180 3.21 167 3.21 171 3.22 172 3.24
 176  0.334  0.996  0.625- 173 3.17 166 3.17 182 3.17 183 3.18 169 3.19 157 3.19 159 3.20 158 3.20
                           181 3.21 168 3.21 170 3.22 172 3.24
 177  0.669  0.669  0.626- 170 3.15 171 3.15 188 3.15 189 3.15 185 3.20 174 3.21 173 3.21 164 3.23
                           165 3.23 288 3.25 167 3.26 168 3.26
 178  0.001  0.001  0.667- 174 3.17 173 3.17 191 3.18 198 3.19 193 3.19 180 3.19 181 3.19 183 3.20
                           187 3.20 189 3.21 188 3.21 172 3.24
 179  0.999  0.500  0.667- 175 3.17 166 3.18 201 3.18 194 3.18 190 3.18 186 3.19 189 3.19 187 3.20
                           183 3.20 180 3.21 184 3.21 171 3.24
 180  0.166  0.333  0.667- 167 3.15 190 3.18 178 3.19 191 3.19 172 3.20 187 3.20 195 3.20 184 3.20
                           175 3.21 185 3.21 179 3.21 181 3.21
 181  0.333  0.166  0.667- 168 3.15 192 3.18 178 3.19 191 3.19 172 3.20 183 3.20 196 3.20 186 3.20
                           176 3.21 185 3.21 182 3.21 180 3.21
 182  0.500  0.999  0.667- 176 3.17 169 3.18 199 3.18 197 3.18 192 3.18 184 3.19 188 3.19 183 3.20
                           187 3.20 181 3.21 186 3.21 170 3.24
 183  0.167  0.833  0.667- 176 3.18 194 3.18 192 3.18 173 3.18 193 3.18 166 3.18 189 3.20 181 3.20
                           184 3.20 178 3.20 182 3.20 179 3.20
 184  0.333  0.667  0.667- 167 3.15 194 3.18 199 3.19 182 3.19 170 3.20 183 3.20 195 3.20 180 3.20
                           185 3.21 166 3.21 179 3.21 188 3.21
 185  0.500  0.500  0.667- 200 3.18 195 3.18 196 3.18 177 3.20 167 3.20 168 3.20 188 3.20 189 3.20
                           184 3.21 186 3.21 180 3.21 181 3.21
 186  0.667  0.333  0.667- 168 3.15 197 3.18 201 3.19 179 3.19 171 3.20 187 3.20 196 3.20 181 3.20
                           185 3.21 169 3.21 182 3.21 189 3.21
 187  0.833  0.167  0.667- 175 3.18 197 3.18 190 3.18 174 3.18 198 3.18 169 3.18 188 3.20 180 3.20
                           186 3.20 178 3.20 179 3.20 182 3.20
 188  0.667  0.834  0.667- 177 3.15 198 3.18 199 3.19 182 3.19 187 3.20 170 3.20 200 3.20 189 3.20
                           185 3.20 174 3.21 178 3.21 184 3.21
 189  0.834  0.667  0.667- 177 3.15 193 3.18 201 3.19 179 3.19 183 3.20 171 3.20 200 3.20 188 3.20
                           185 3.20 173 3.21 178 3.21 186 3.21
 190  0.000  0.334  0.708- 187 3.18 180 3.18 203 3.18 179 3.18 204 3.19 211 3.19 194 3.19 195 3.20
                           191 3.20 201 3.21 198 3.21 197 3.21
 191  0.167  0.167  0.709- 204 3.18 205 3.18 178 3.18 202 3.19 180 3.19 181 3.19 195 3.19 196 3.19
                           190 3.20 192 3.20 198 3.21 193 3.21
 192  0.334  0.000  0.708- 183 3.18 181 3.18 206 3.18 182 3.18 205 3.19 207 3.19 197 3.19 196 3.20
                           191 3.20 199 3.21 193 3.21 194 3.21
 193  1.000  0.834  0.708- 183 3.18 189 3.18 202 3.18 178 3.19 213 3.19 207 3.19 198 3.19 200 3.20
                           201 3.20 191 3.21 192 3.21 194 3.21
 194  0.166  0.666  0.708- 183 3.18 184 3.18 203 3.18 179 3.18 208 3.19 207 3.19 190 3.19 195 3.20
                           199 3.20 201 3.21 192 3.21 193 3.21
 195  0.334  0.500  0.709- 185 3.18 204 3.18 208 3.18 209 3.18 199 3.19 191 3.19 196 3.20 200 3.20
                           184 3.20 180 3.20 194 3.20 190 3.20
 196  0.500  0.334  0.709- 185 3.18 205 3.18 210 3.18 209 3.18 201 3.19 191 3.19 195 3.20 200 3.20
                           186 3.20 181 3.20 197 3.20 192 3.20
 197  0.666  0.166  0.708- 187 3.18 186 3.18 206 3.18 182 3.18 210 3.19 211 3.19 192 3.19 196 3.20
                           201 3.20 199 3.21 190 3.21 198 3.21
 198  0.834  1.000  0.708- 187 3.18 188 3.18 202 3.18 178 3.19 212 3.19 211 3.19 193 3.19 200 3.20
                           199 3.20 191 3.21 190 3.21 197 3.21
 199  0.500  0.833  0.708- 182 3.18 212 3.18 208 3.18 206 3.18 184 3.19 188 3.19 195 3.19 200 3.19
                           194 3.20 198 3.20 192 3.21 197 3.21
 200  0.666  0.666  0.709- 185 3.18 212 3.18 213 3.18 209 3.18 199 3.19 201 3.19 195 3.20 196 3.20
                           188 3.20 189 3.20 198 3.20 193 3.20
 201  0.833  0.500  0.708- 179 3.18 213 3.18 210 3.18 203 3.18 186 3.19 189 3.19 196 3.19 200 3.19
                           197 3.20 193 3.20 190 3.21 194 3.21
 202  0.000  0.000  0.750- 222 3.18 217 3.18 215 3.18 198 3.18 193 3.18 191 3.19 204 3.20 205 3.20
                           207 3.20 211 3.20 213 3.20 212 3.20
 203  1.000  0.500  0.750- 190 3.18 194 3.18 214 3.18 201 3.18 218 3.18 225 3.19 213 3.20 210 3.20
                           207 3.20 208 3.20 211 3.20 204 3.20
 204  0.167  0.333  0.750- 195 3.18 215 3.18 214 3.18 191 3.18 219 3.19 190 3.19 208 3.20 202 3.20
                           211 3.20 209 3.20 203 3.20 205 3.20
 205  0.333  0.167  0.750- 196 3.18 215 3.18 216 3.18 191 3.18 220 3.19 192 3.19 210 3.20 202 3.20
                           207 3.20 209 3.20 206 3.20 204 3.20
 206  0.500  1.000  0.750- 192 3.18 197 3.18 216 3.18 199 3.18 221 3.18 223 3.19 212 3.20 208 3.20
                           211 3.20 210 3.20 207 3.20 205 3.20
 207  0.167  0.833  0.750- 217 3.18 218 3.18 216 3.18 193 3.19 192 3.19 194 3.19 213 3.20 203 3.20
                           208 3.20 202 3.20 205 3.20 206 3.20
 208  0.333  0.667  0.750- 195 3.18 218 3.18 223 3.18 199 3.18 219 3.18 194 3.19 204 3.20 206 3.20
                           207 3.20 209 3.20 203 3.20 212 3.20
 209  0.500  0.500  0.750- 224 3.18 219 3.18 220 3.18 200 3.18 195 3.18 196 3.18 208 3.20 210 3.20
                           212 3.20 213 3.20 204 3.20 205 3.20
 210  0.667  0.333  0.750- 196 3.18 221 3.18 225 3.18 201 3.18 220 3.18 197 3.19 205 3.20 203 3.20
                           211 3.20 209 3.20 206 3.20 213 3.20
 211  0.833  0.167  0.750- 222 3.18 221 3.18 214 3.18 198 3.19 190 3.19 197 3.19 212 3.20 206 3.20
                           210 3.20 202 3.20 204 3.20 203 3.20
 212  0.667  0.833  0.750- 200 3.18 222 3.18 223 3.18 199 3.18 224 3.19 198 3.19 213 3.20 211 3.20
                           206 3.20 209 3.20 202 3.20 208 3.20
 213  0.833  0.667  0.750- 200 3.18 217 3.18 225 3.18 201 3.18 224 3.19 193 3.19 212 3.20 207 3.20
                           203 3.20 209 3.20 202 3.20 210 3.20
 214  1.000  0.333  0.792- 235 3.18 227 3.18 228 3.18 204 3.18 211 3.18 203 3.18 218 3.20 225 3.20
                           222 3.20 221 3.20 215 3.20 219 3.20
 215  0.167  0.167  0.792- 226 3.18 228 3.18 229 3.18 204 3.18 205 3.18 202 3.18 219 3.20 220 3.20
                           214 3.20 216 3.20 222 3.20 217 3.20
 216  0.333  1.000  0.792- 231 3.18 230 3.18 229 3.18 205 3.18 207 3.18 206 3.18 221 3.20 223 3.20
                           217 3.20 218 3.20 215 3.20 220 3.20
 217  0.000  0.833  0.792- 226 3.18 207 3.18 231 3.18 213 3.18 237 3.18 202 3.18 218 3.20 225 3.20
                           216 3.20 222 3.20 224 3.20 215 3.20
 218  0.167  0.667  0.792- 231 3.18 227 3.18 208 3.18 207 3.18 232 3.18 203 3.18 214 3.20 217 3.20
                           225 3.20 223 3.20 219 3.20 216 3.20
 219  0.333  0.500  0.792- 228 3.17 209 3.18 233 3.18 232 3.18 208 3.18 204 3.19 224 3.20 223 3.20
                           220 3.20 215 3.20 218 3.20 214 3.20
 220  0.500  0.333  0.792- 229 3.17 209 3.18 233 3.18 234 3.18 210 3.18 205 3.19 224 3.20 225 3.20
                           219 3.20 215 3.20 221 3.20 216 3.20
 221  0.667  0.167  0.792- 235 3.18 230 3.18 210 3.18 211 3.18 234 3.18 206 3.18 216 3.20 222 3.20
                           223 3.20 225 3.20 220 3.20 214 3.20
 222  0.833  0.000  0.792- 226 3.18 211 3.18 235 3.18 212 3.18 236 3.18 202 3.18 221 3.20 223 3.20
                           214 3.20 217 3.20 224 3.20 215 3.20
 223  0.500  0.833  0.792- 230 3.18 236 3.18 208 3.18 232 3.18 212 3.18 206 3.19 216 3.20 219 3.20
                           221 3.20 218 3.20 224 3.20 222 3.20
 224  0.667  0.667  0.792- 236 3.17 237 3.17 209 3.18 233 3.18 212 3.19 213 3.19 219 3.20 220 3.20
                           223 3.20 225 3.20 222 3.20 217 3.20
 225  0.833  0.500  0.792- 227 3.18 237 3.18 210 3.18 234 3.18 213 3.18 203 3.19 214 3.20 220 3.20
                           218 3.20 221 3.20 224 3.20 217 3.20
 226  1.000  1.000  0.833- 246 3.17 241 3.17 239 3.17 215 3.18 222 3.18 217 3.18 228 3.20 229 3.20
                           231 3.20 235 3.20 237 3.20 236 3.20
 227  0.000  0.500  0.833- 238 3.18 225 3.18 218 3.18 214 3.18 249 3.18 242 3.18 231 3.20 237 3.20
                           235 3.20 228 3.20 234 3.20 232 3.20
 228  0.167  0.334  0.833- 239 3.17 219 3.17 238 3.18 215 3.18 214 3.18 243 3.18 233 3.20 232 3.20
                           227 3.20 235 3.20 226 3.20 229 3.20
 229  0.334  0.167  0.833- 239 3.17 220 3.17 240 3.18 215 3.18 216 3.18 244 3.18 233 3.20 234 3.20
                           230 3.20 231 3.20 226 3.20 228 3.20
 230  0.500  0.000  0.833- 240 3.18 223 3.18 221 3.18 216 3.18 247 3.18 245 3.18 235 3.20 236 3.20
                           231 3.20 229 3.20 232 3.20 234 3.20
 231  0.167  0.833  0.833- 241 3.17 218 3.18 240 3.18 216 3.18 217 3.18 242 3.18 232 3.20 227 3.20
                           230 3.20 229 3.20 226 3.20 237 3.20
 232  0.333  0.667  0.833- 247 3.18 243 3.18 242 3.18 219 3.18 223 3.18 218 3.18 236 3.20 231 3.20
                           228 3.20 233 3.20 230 3.20 227 3.20
 233  0.500  0.500  0.833- 248 3.17 243 3.18 244 3.18 219 3.18 220 3.18 224 3.18 228 3.20 229 3.20
                           236 3.20 237 3.20 232 3.20 234 3.20
 234  0.667  0.333  0.833- 249 3.18 244 3.18 245 3.18 220 3.18 225 3.18 221 3.18 237 3.20 235 3.20
                           229 3.20 233 3.20 227 3.20 230 3.20
 235  0.833  0.167  0.833- 246 3.17 221 3.18 238 3.18 214 3.18 222 3.18 245 3.18 234 3.20 230 3.20
                           227 3.20 228 3.20 226 3.20 236 3.20
 236  0.666  0.833  0.833- 246 3.17 224 3.17 248 3.18 223 3.18 247 3.18 222 3.18 232 3.20 230 3.20
                           233 3.20 237 3.20 226 3.20 235 3.20
 237  0.833  0.666  0.833- 241 3.17 224 3.17 248 3.18 225 3.18 249 3.18 217 3.18 234 3.20 227 3.20
                           233 3.20 236 3.20 226 3.20 231 3.20
 238  1.000  0.333  0.874- 252 3.17 259 3.17 227 3.18 228 3.18 235 3.18 251 3.18 249 3.20 242 3.20
                           245 3.20 246 3.20 243 3.20 239 3.20
 239  0.167  0.167  0.874- 250 3.17 228 3.17 229 3.17 226 3.17 252 3.18 253 3.18 243 3.20 244 3.20
                           238 3.20 240 3.20 246 3.20 241 3.20
 240  0.333  1.000  0.874- 253 3.17 255 3.17 230 3.18 229 3.18 231 3.18 254 3.18 247 3.20 245 3.20
                           242 3.20 241 3.20 244 3.20 239 3.20
 241  0.000  0.833  0.874- 250 3.16 237 3.17 231 3.17 226 3.17 261 3.18 255 3.18 242 3.20 249 3.20
                           240 3.20 248 3.20 239 3.20 246 3.20
 242  0.167  0.667  0.875- 255 3.17 251 3.17 256 3.18 232 3.18 227 3.18 231 3.18 238 3.20 241 3.20
                           249 3.20 243 3.20 247 3.20 240 3.20
 243  0.333  0.500  0.875- 252 3.17 257 3.17 256 3.17 233 3.18 232 3.18 228 3.18 248 3.20 239 3.20
                           247 3.20 242 3.20 244 3.20 238 3.20
 244  0.500  0.333  0.875- 253 3.17 257 3.17 258 3.17 233 3.18 234 3.18 229 3.18 248 3.20 239 3.20
                           249 3.20 245 3.20 243 3.20 240 3.20
 245  0.667  0.167  0.875- 259 3.17 254 3.17 258 3.18 234 3.18 230 3.18 235 3.18 240 3.20 246 3.20
                           247 3.20 244 3.20 249 3.20 238 3.20
 246  0.833  0.000  0.874- 250 3.16 236 3.17 235 3.17 226 3.17 260 3.18 259 3.18 245 3.20 247 3.20
                           238 3.20 248 3.20 239 3.20 241 3.20
 247  0.500  0.833  0.875- 260 3.17 254 3.17 232 3.18 256 3.18 236 3.18 230 3.18 240 3.20 243 3.20
                           245 3.20 242 3.20 246 3.20 248 3.20
 248  0.667  0.667  0.874- 233 3.17 260 3.17 261 3.17 236 3.18 237 3.18 257 3.18 243 3.20 244 3.20
                           247 3.20 249 3.20 246 3.20 241 3.20
 249  0.833  0.500  0.875- 261 3.17 251 3.17 234 3.18 258 3.18 237 3.18 227 3.18 238 3.20 244 3.20
                           242 3.20 245 3.20 241 3.20 248 3.20
 250  1.000  1.000  0.915- 246 3.16 241 3.16 239 3.17 263 3.18 270 3.18 265 3.18 261 3.20 260 3.20
                           252 3.20 253 3.20 255 3.20 259 3.20
 251  0.000  0.500  0.916- 242 3.17 249 3.17 238 3.18 273 3.19 266 3.19 262 3.19 255 3.20 261 3.20
                           256 3.20 258 3.20 252 3.20 259 3.20
 252  0.167  0.334  0.916- 243 3.17 238 3.17 263 3.18 239 3.18 267 3.18 262 3.20 257 3.20 256 3.20
                           259 3.20 251 3.20 250 3.20 253 3.21
 253  0.334  0.167  0.916- 244 3.17 240 3.17 263 3.18 239 3.18 268 3.18 264 3.20 257 3.20 258 3.20
                           255 3.20 254 3.20 250 3.20 252 3.21
 254  0.500  0.000  0.916- 245 3.17 247 3.17 240 3.18 271 3.19 269 3.19 264 3.19 259 3.20 260 3.20
                           258 3.20 256 3.20 253 3.20 255 3.20
 255  0.167  0.833  0.916- 242 3.17 240 3.17 265 3.18 241 3.18 266 3.18 264 3.20 251 3.20 256 3.20
                           253 3.20 254 3.20 250 3.20 261 3.21
 256  0.333  0.667  0.916- 243 3.17 242 3.18 247 3.18 266 3.18 267 3.18 271 3.18 255 3.20 252 3.20
                           260 3.20 251 3.20 257 3.20 254 3.20
 257  0.500  0.500  0.916- 243 3.17 244 3.17 248 3.18 267 3.19 268 3.19 272 3.19 252 3.20 253 3.20
                           256 3.20 258 3.20 260 3.20 261 3.20
 258  0.667  0.333  0.916- 244 3.17 245 3.18 249 3.18 269 3.18 268 3.18 273 3.18 259 3.20 253 3.20
                           261 3.20 254 3.20 257 3.20 251 3.20
 259  0.833  0.167  0.916- 245 3.17 238 3.17 270 3.18 246 3.18 269 3.18 262 3.20 254 3.20 258 3.20
                           252 3.20 251 3.20 250 3.20 260 3.21
 260  0.666  0.833  0.916- 247 3.17 248 3.17 270 3.18 246 3.18 271 3.18 272 3.20 254 3.20 256 3.20
                           261 3.20 257 3.20 250 3.20 259 3.21
 261  0.833  0.666  0.916- 249 3.17 248 3.17 265 3.18 241 3.18 273 3.18 272 3.20 251 3.20 258 3.20
                           260 3.20 257 3.20 250 3.20 255 3.21
 262  1.000  0.334  0.958- 269 3.19 267 3.19 251 3.19   4 3.19  11 3.19 259 3.20 252 3.20 270 3.21
                           263 3.21 273 3.21 266 3.21   1 3.21
 263  0.166  0.166  0.957- 252 3.18 253 3.18   5 3.18 250 3.18 270 3.19 265 3.19 267 3.20 268 3.20
                           262 3.21 264 3.21   1 3.22   2 3.22
 264  0.334  1.000  0.958- 266 3.19 268 3.19 254 3.19   6 3.19   8 3.19 255 3.20 253 3.20 265 3.21
                           263 3.21 271 3.21 269 3.21   2 3.21
 265  0.000  0.834  0.957- 255 3.18 261 3.18   3 3.18 250 3.18 263 3.19 270 3.19 266 3.20 273 3.20
                           264 3.21 272 3.21   2 3.22  12 3.22
 266  0.167  0.668  0.957-   3 3.17 255 3.18 256 3.18   4 3.18 251 3.19 264 3.19 265 3.20 271 3.20
                           267 3.20   8 3.21 262 3.21 273 3.21
 267  0.332  0.499  0.957-   5 3.17 256 3.18 252 3.18   9 3.19 257 3.19 262 3.19 263 3.20 266 3.20
                           271 3.20   4 3.21 272 3.21 268 3.21
 268  0.499  0.332  0.957-   5 3.17 258 3.18 253 3.18  10 3.19 257 3.19 264 3.19 263 3.20 269 3.20
                           273 3.20   6 3.21 272 3.21 267 3.21
 269  0.668  0.167  0.957-   7 3.17 259 3.18 258 3.18   6 3.18 254 3.19 262 3.19 270 3.20 273 3.20
                           268 3.20  11 3.21 264 3.21 271 3.21
 270  0.834  0.000  0.957- 259 3.18 260 3.18   7 3.18 250 3.18 263 3.19 265 3.19 269 3.20 271 3.20
                           262 3.21 272 3.21   1 3.22  12 3.22
 271  0.501  0.833  0.957-   7 3.17 256 3.18 260 3.18   8 3.19 254 3.19 272 3.19 270 3.20 266 3.20
                           267 3.20   9 3.21 264 3.21 269 3.21
 272  0.666  0.666  0.958- 257 3.19 271 3.19 273 3.19   9 3.19  10 3.19 260 3.20 261 3.20 270 3.21
                           265 3.21 267 3.21 268 3.21  12 3.21
 273  0.833  0.501  0.957-   3 3.17 258 3.18 261 3.18  11 3.19 251 3.19 272 3.19 265 3.20 269 3.20
                           268 3.20  10 3.21 262 3.21 266 3.21
 274  0.000  0.230  0.074-  14 2.74  21 2.74  29 2.77  24 2.77 282 3.01 283 3.01 280 3.03 284 3.05

 275  0.230  0.000  0.074-  15 2.74  17 2.74  26 2.77  25 2.77 282 3.01 281 3.01 280 3.03 285 3.05

 276  0.770  0.770  0.074-  23 2.74  22 2.74  28 2.77  27 2.77 281 3.01 283 3.01 280 3.03 286 3.05

 277  0.232  0.232  0.134-  37 2.75  38 2.75  31 2.77  32 2.77 287 3.01 284 3.02 285 3.02 282 3.05

 278  1.000  0.768  0.134-  46 2.75  40 2.75  35 2.77  30 2.77 287 3.01 286 3.01 285 3.02 281 3.05

 279  0.768  1.000  0.134-  45 2.75  44 2.75  34 2.77  33 2.77 287 3.01 286 3.01 284 3.02 283 3.05

 280  0.000  0.000  0.048- 276 3.03 275 3.03 274 3.03  14 3.33  15 3.33  17 3.33  21 3.33  23 3.33
                            22 3.33   2 3.56   1 3.56  12 3.56 282 3.97 281 3.97 283 3.97
 281  1.000  0.713  0.087- 276 3.01 275 3.01 278 3.05  35 3.33  30 3.33  17 3.35  23 3.35  28 3.38
                            26 3.39  29 3.54  24 3.54  13 3.65 286 3.88 285 3.88 280 3.97
 282  0.286  0.286  0.087- 275 3.01 274 3.01 277 3.05  32 3.33  31 3.33  15 3.35  14 3.35  25 3.38
                            24 3.38  28 3.54  27 3.54  19 3.66 285 3.88 284 3.88 280 3.97
 283  0.713  1.000  0.087- 276 3.01 274 3.01 279 3.05  34 3.33  33 3.33  21 3.35  22 3.35  27 3.38
                            29 3.39  26 3.54  25 3.54  16 3.65 286 3.88 284 3.88 280 3.97
 284  0.000  0.287  0.122- 277 3.02 279 3.02 274 3.05  24 3.32  29 3.32  44 3.35  37 3.35  31 3.39
                            33 3.39  30 3.53  35 3.53  36 3.67 282 3.88 283 3.88 287 3.94
 285  0.287  0.000  0.122- 277 3.02 278 3.02 275 3.05  25 3.32  26 3.32  40 3.35  38 3.35  32 3.39
                            30 3.39  33 3.53  34 3.53  39 3.67 282 3.88 281 3.88 287 3.94
 286  0.714  0.714  0.122- 279 3.01 278 3.01 276 3.05  27 3.32  28 3.32  45 3.35  46 3.35  34 3.39
                            35 3.39  31 3.53  32 3.53  42 3.67 283 3.88 281 3.88 287 3.94
 287  0.000  0.000  0.160- 277 3.01 279 3.01 278 3.01  46 3.33  45 3.33  40 3.33  44 3.33  37 3.33
                            38 3.33  55 3.57  50 3.57  48 3.57 286 3.94 284 3.94 285 3.94
 288  0.500  0.500  0.583- 160 3.25 162 3.25 164 3.25 165 3.25 156 3.25 157 3.25 151 3.25 144 3.25
                           145 3.25 167 3.25 168 3.25 177 3.25
 
  LATTYP: Found a base centered orthorhombic cell.
 ALAT       =    11.0890258199
 B/A-ratio  =     1.7319729332
 C/A-ratio  =     5.6267253301
  
  Lattice vectors:
  
 A1 = (  11.0886518915,   0.0002158877,  -0.0000025036)
 A2 = (  -5.5441389816,   9.6031621755,  -0.0000025036)
 A3 = (  -0.0000153317,  -0.0000265553,  62.3949024663)
 Subroutine PRICEL returns:
 Original cell was already a primitive cell.
 

Analysis of symmetry for initial positions (statically):

 Routine SETGRP: Setting up the symmetry group for a 
 base centered orthorhombic supercell.


 Subroutine GETGRP returns: Found  2 space group operations
 (whereof  2 operations were pure point group operations)
 out of a pool of  8 trial point group operations.


The static configuration has the point symmetry C_1h.

Analysis of symmetry for dynamics (positions and initial velocities):

 Subroutine DYNSYM returns: Found  2 space group operations
 (whereof  2 operations were pure point group operations)
 out of a pool of  2 trial space group operations
 (whereof  2 operations were pure point group operations)
 and found also     1 'primitive' translations


The dynamic configuration has the point symmetry C_1h.
 
 
 KPOINTS: Automatic mesh                          

Automatic generation of k-mesh.
 generate k-points for:   5   5   1
 
 Subroutine IBZKPT returns following result:
 ===========================================
 
 Found      9 irreducible k-points:
 
 Following reciprocal coordinates:
            Coordinates               Weight
  0.000000  0.000000  0.000000      1.000000
  0.200000  0.000000 -0.000000      4.000000
  0.400000  0.000000 -0.000000      4.000000
  0.200000  0.200000 -0.000000      2.000000
  0.400000  0.200000 -0.000000      4.000000
 -0.400000  0.200000 -0.000000      4.000000
 -0.200000  0.200000 -0.000000      2.000000
  0.400000  0.400000 -0.000000      2.000000
 -0.400000  0.400000 -0.000000      2.000000
 
 Following cartesian coordinates:
            Coordinates               Weight
  0.000000  0.000000  0.000000      1.000000
  0.018036  0.010413  0.000000      4.000000
  0.036073  0.020826  0.000000      4.000000
  0.018036  0.031239  0.000000      2.000000
  0.036072  0.041652  0.000000      4.000000
 -0.036073  0.000001 -0.000000      4.000000
 -0.018037  0.010413  0.000000      2.000000
  0.036072  0.062478  0.000000      2.000000
 -0.036073  0.020827  0.000000      2.000000
 
 TETIRR: Found     39 inequivalent tetrahedra from      150


--------------------------------------------------------------------------------------------------------




 Dimension of arrays:
   k-Points           NKPTS =      9   number of bands    NBANDS=    504
   number of dos      NEDOS =    301   number of ions     NIONS =    288
   non local maximal  LDIM  =      6   non local SUM 2l+1 LMDIM =     18
   total plane-waves  NPLWV = ******
   max r-space proj   IRMAX =   7055   max aug-charges    IRDMAX= 105820
   dimension x,y,z NGX =    64 NGY =   64 NGZ =  360
   dimension x,y,z NGXF=   128 NGYF=  128 NGZF=  720
   support grid    NGXF=   256 NGYF=  256 NGZF= 1440
   ions per type =             273   6   9
 NGX,Y,Z   is equivalent  to a cutoff of   9.60,  9.60,  9.59 a.u.
 NGXF,Y,Z  is equivalent  to a cutoff of  19.19, 19.19, 19.18 a.u.


 I would recommend the setting:
   dimension x,y,z NGX =    63 NGY =   63 NGZ =  352
 SYSTEM =  Gd unit fixed hcp k-0.5 cut-300 yosuke  
 POSCAR =  New structure                           

 Startparameter for this run:
   NWRITE =      2    write-flag & timer
   PREC   = accura    medium, high low
   ISTART =      0    job   : 0-new  1-cont  2-samecut
   ICHARG =      2    charge: 1-file 2-atom 10-const
   ISPIN  =      1    spin polarized calculation?
   LNONCOLLINEAR =      F non collinear calculations
   LSORBIT =      F    spin-orbit coupling
   INIWAV =      1    electr: 0-lowe 1-rand  2-diag
   LASPH  =      F    aspherical Exc in radial PAW
   METAGGA=      F    non-selfconsistent MetaGGA calc.

 Electronic Relaxation 1
   ENCUT  =  300.0 eV  22.05 Ry    4.70 a.u.  15.66 15.66 88.12*2*pi/ulx,y,z
   ENINI  =  300.0     initial cutoff
   ENAUG  =  575.9 eV  augmentation charge cutoff
   NELM   =     60;   NELMIN= 12; NELMDL=-12     # of ELM steps 
   EDIFF  = 0.1E-04   stopping-criterion for ELM
   LREAL  =      T    real-space projection
   LCOMPAT=      F    compatible to vasp.4.4
   LREAL_COMPAT= F    compatible to vasp.4.5.1-3
   GGA_COMPAT  = T    GGA compatible to vasp.4.4-vasp.4.6
   LMAXPAW     = -100 max onsite density
   LMAXMIX     =    2 max onsite mixed and CHGCAR
   VOSKOWN=      1    Vosko Wilk Nusair interpolation
   ROPT   =   -0.00025  -0.00025  -0.00025
 Ionic relaxation
   EDIFFG = -.2E-01   stopping-criterion for IOM
   NSW    =      0    number of steps for IOM
   NBLOCK =      1;   KBLOCK =      1    inner block; outer block 
   IBRION =     -1    ionic relax: 0-MD 1-quasi-New 2-CG
   NFREE  =      0    steps in history (QN), initial steepest desc. (CG)
   ISIF   =      2    stress and relaxation
   IWAVPR =     10    prediction:  0-non 1-charg 2-wave 3-comb
   ISYM   =      2    0-nonsym 1-usesym 2-fastsym
   LCORR  =      T    Harris-Foulkes like correction to forces

   POTIM  =   0.50    time-step for ionic-motion
   TEIN   =    0.0    initial temperature
   TEBEG  =    0.0;   TEEND  =   0.0 temperature during run
   SMASS  =  -3.00    Nose mass-parameter (am)
   estimated Nose-frequenzy (Omega)   =  0.10E-29 period in steps =****** mass=  -0.281E-26a.u.
   NPACO  =    256;   APACO  = 16.0  distance and # of slots for P.C.
   PSTRESS=    0.0 pullay stress

  Mass of Ions in am
   POMASS =  24.30 65.39 88.91
  Ionic Valenz
   ZVAL   =   2.00 12.00 11.00
  Atomic Wigner-Seitz radii
   RWIGS  =  -1.00 -1.00 -1.00
   NELECT =     717.0000    total number of electrons
   NUPDOWN=      -1.0000    fix difference up-down

 DOS related values:
   EMIN   =  10.00;   EMAX   =-10.00  energy-range for DOS
   ISMEAR =    -5;   SIGMA  =   0.20  broadening in eV -4-tet -1-fermi 0-gaus

 Electronic relaxation 2 (details)
   IALGO  =     48    algorithm
   LDIAG  =      T    sub-space diagonalisation
   IMIX   =      4    mixing-type and parameters
     AMIX     =   0.40;   BMIX     =  1.00
     AMIX_MAG =   1.60;   BMIX_MAG =  1.00
     AMIN     =   0.10
     WC   =   100.;   INIMIX=   1;  MIXPRE=   1

 Intra band minimization:
   WEIMIN = 0.0000     energy-eigenvalue tresh-hold
   EBREAK =  0.50E-08  absolut break condition
   DEPER  =   0.30     relativ break condition  

   TIME   =   0.10     timestep for ELM

  volume/ion in A,a.u.               =      23.07       155.69
  Fermi-wavevector in a.u.,eV,Ry     =   0.779409  8.265250  0.607479

 Second variation
   LSECVAR=     F    do a second variation
 
 Write flags
   LWAVE  =      F    write WAVECAR
   LCHARG =      T    write CHGCAR
   LVTOT  =      F    write LOCPOT, local potential
   LELF   =      F    write electronic localiz. function (ELF)
   LORBIT =      0    0 simple, 1 ext, 2 COOP (PROOUT)


 Dipole corrections
   IDIPOL =      0    1-x, 2-y, 3-z
   LDIPOL =      F    correct potential



--------------------------------------------------------------------------------------------------------


 Static calculation
 charge density will be updated during run
 non-spin polarized calculation
 RMM-DIIS sequential band-by-band
 performe sub-space diagonalisation
    before iterative eigenvector-optimisation
 modified Broyden-mixing scheme, WC =      100.0
 initial mixing is a Kerker type mixing with AMIX =  0.4000 and BMIX =      1.0000
 Hartree-type preconditioning will be used
 using additional bands          145
 real space projection scheme for non local part
 use partial core corrections
 calculate Harris-corrections to forces 
   (improved forces if not selfconsistent)
 use gradient corrections 
 use of overlap-Matrix (Vanderbilt PP)
 Fermi weights with tetrahedron method with Bloechl corrections


--------------------------------------------------------------------------------------------------------


  energy-cutoff  :      300.00
  volume of cell :     6644.27
      direct lattice vectors                 reciprocal lattice vectors
    11.088651891  0.000215888 -0.000002504     0.090181274  0.052063842  0.000000044
    -5.544138982  9.603162176 -0.000002504    -0.000002027  0.104131196  0.000000044
    -0.000015332 -0.000026555 62.394902466     0.000000004  0.000000006  0.016026950

  length of vectors
    11.088651894 11.088651894 62.394902466     0.104131196  0.104131196  0.016026950


 
 k-points in units of 2pi/SCALE and weight: Automatic mesh                          
   0.00000000  0.00000000  0.00000000       0.040
   0.01803625  0.01041277  0.00000001       0.160
   0.03607251  0.02082554  0.00000002       0.160
   0.01803585  0.03123901  0.00000002       0.080
   0.03607210  0.04165178  0.00000003       0.160
  -0.03607292  0.00000070 -0.00000001       0.160
  -0.01803666  0.01041347  0.00000000       0.080
   0.03607170  0.06247802  0.00000004       0.080
  -0.03607332  0.02082694  0.00000000       0.080
 
 k-points in reciprocal lattice and weights: Automatic mesh                          
   0.00000000  0.00000000  0.00000000       0.040
   0.20000000  0.00000000 -0.00000000       0.160
   0.40000000  0.00000000 -0.00000000       0.160
   0.20000000  0.20000000 -0.00000000       0.080
   0.40000000  0.20000000 -0.00000000       0.160
  -0.40000000  0.20000000 -0.00000000       0.160
  -0.20000000  0.20000000 -0.00000000       0.080
   0.40000000  0.40000000 -0.00000000       0.080
  -0.40000000  0.40000000 -0.00000000       0.080
 
 position of ions in fractional coordinates (direct lattice) 
   0.99995817  0.16522927  0.99942569
   0.16522894  0.99995817  0.99942569
   0.00001549  0.66831235  0.99867854
   0.16508640  0.50219259  0.99922995
   0.33165648  0.33165612  0.99867656
   0.50219259  0.16508673  0.99922995
   0.66831205  0.00001549  0.99867854
   0.33708745  0.83489042  0.99923792
   0.49778565  0.66288582  0.99923188
   0.66288552  0.49778565  0.99923188
   0.83489042  0.33708745  0.99923792
   0.83473109  0.83473109  0.99941983
   0.99997230  0.50121450  0.04171698
   0.17341937  0.34174580  0.03975475
   0.34174615  0.17341937  0.03975475
   0.50121450  0.99997230  0.04171698
   0.16830006  0.82654555  0.03976218
   0.33333092  0.66666917  0.04135395
   0.49881323  0.49881323  0.04170404
   0.66666888  0.33333056  0.04135395
   0.82654585  0.16830039  0.03976218
   0.65824837  0.83169458  0.03974511
   0.83169487  0.65824867  0.03974511
   0.16584655  0.51228165  0.08304930
   0.51228165  0.16584688  0.08304930
   0.34645257  0.83418999  0.08305205
   0.48771284  0.65350720  0.08304592
   0.65350690  0.48771284  0.08304592
   0.83418999  0.34645257  0.08305205
   0.16596106  0.65317120  0.12584807
   0.34692032  0.51284858  0.12585276
   0.51284858  0.34691997  0.12585276
   0.65317091  0.16596139  0.12584807
   0.48723436  0.83406839  0.12585292
   0.83406869  0.48723436  0.12585292
   0.00003729  0.49963144  0.16727189
   0.16769775  0.34135905  0.16909514
   0.34135941  0.16769775  0.16909514
   0.49963144  0.00003729  0.16727189
   0.17367885  0.83234233  0.16907003
   0.33334284  0.66670735  0.16766908
   0.50038219  0.50038219  0.16727467
   0.66670705  0.33334248  0.16766908
   0.83234263  0.17367918  0.16907003
   0.65872354  0.82641988  0.16908350
   0.82642018  0.65872383  0.16908350
   0.99999664  0.33220053  0.20997149
   0.16431256  0.16431289  0.20883930
   0.33220089  0.99999664  0.20997149
   0.00000948  0.83572259  0.20883657
   0.16566764  0.66369571  0.20954578
   0.33633781  0.50194907  0.20955539
   0.50194907  0.33633745  0.20955539
   0.66369541  0.16566796  0.20954578
   0.83572289  0.00000948  0.20883657
   0.49807565  0.83441477  0.20955012
   0.66786535  0.66786564  0.20997029
   0.83441507  0.49807565  0.20955012
   0.99999541  0.99999541  0.25094608
   0.00000704  0.49962718  0.25108892
   0.16695412  0.33243534  0.25083918
   0.33243570  0.16695412  0.25083918
   0.49962718  0.00000704  0.25108892
   0.16550523  0.83307330  0.25080991
   0.33334707  0.66670511  0.25067884
   0.50039517  0.50039517  0.25107376
   0.66670481  0.33334671  0.25067884
   0.83307359  0.16550556  0.25080991
   0.66761975  0.83453863  0.25083507
   0.83453893  0.66762005  0.25083507
   0.99995026  0.33254797  0.29227249
   0.16668240  0.16668273  0.29232295
   0.33254832  0.99995026  0.29227249
   0.00005820  0.83342623  0.29230697
   0.16650420  0.66651710  0.29216615
   0.33348502  0.50004792  0.29216650
   0.50004792  0.33348466  0.29216650
   0.66651680  0.16650453  0.29216615
   0.83342652  0.00005820  0.29230697
   0.49996266  0.83342436  0.29217815
   0.66751721  0.66751751  0.29226594
   0.83342466  0.49996266  0.29217815
   0.00001468  0.00001468  0.33369034
   0.00002745  0.49975941  0.33361823
   0.16684732  0.33345561  0.33358542
   0.33345596  0.16684732  0.33358542
   0.49975941  0.00002745  0.33361823
   0.16666619  0.83320818  0.33361589
   0.33337906  0.66668456  0.33353220
   0.50026153  0.50026153  0.33350537
   0.66668426  0.33337871  0.33353220
   0.83320848  0.16666651  0.33361589
   0.66651968  0.83331888  0.33358122
   0.83331918  0.66651998  0.33358122
   0.16645197  0.66663766  0.37501348
   0.33337615  0.49990584  0.37491284
   0.49990584  0.33337580  0.37491284
   0.66663736  0.16645230  0.37501348
   0.50009750  0.83340877  0.37498586
   0.83340907  0.50009750  0.37498586
   0.99991708  0.33328206  0.37506772
   0.33328241  0.99991708  0.37506772
   0.66672501  0.66672531  0.37495573
   0.16664568  0.16664601  0.37505910
   0.00009449  0.83350972  0.37508124
   0.83351002  0.00009449  0.37508124
   0.00017637  0.00017637  0.41657909
   0.99984430  0.49999815  0.41659371
   0.16659309  0.33336017  0.41652546
   0.33336052  0.16659309  0.41652546
   0.49999815  0.99984430  0.41659371
   0.16663487  0.83332815  0.41652618
   0.33318391  0.66659949  0.41647797
   0.49997255  0.49997255  0.41631599
   0.66659919  0.33318356  0.41647797
   0.83332845  0.16663520  0.41652618
   0.66685715  0.83346758  0.41652100
   0.83346788  0.66685745  0.41652100
   0.16630788  0.66623929  0.45819206
   0.33349426  0.49992292  0.45792163
   0.49992292  0.33349391  0.45792163
   0.66623899  0.16630821  0.45819206
   0.50002252  0.83265609  0.45810746
   0.83265639  0.50002252  0.45810746
   0.00009695  0.33372428  0.45819899
   0.33372464  0.00009695  0.45819899
   0.66649005  0.66649035  0.45792724
   0.16735702  0.16735734  0.45808954
   0.99990557  0.83368484  0.45816804
   0.83368514  0.99990557  0.45816804
   0.99866748  0.49995902  0.49976067
   0.49995902  0.99866748  0.49976067
   0.33277764  0.66660293  0.49976989
   0.66660263  0.33277728  0.49976989
   0.66726032  0.83386070  0.49976489
   0.83386099  0.66726062  0.49976489
   0.49999775  0.49999775  0.49938946
   0.83335566  0.16661411  0.49966289
   0.16661379  0.83335537  0.49966289
   0.16618545  0.33331506  0.49976517
   0.33331541  0.16618545  0.49976517
   0.00132633  0.00132633  0.49972146
   0.16242861  0.66609361  0.54137129
   0.33043651  0.49994933  0.54083203
   0.49994933  0.33043615  0.54083203
   0.66609331  0.16242894  0.54137129
   0.49996863  0.82737198  0.54190736
   0.82737227  0.49996863  0.54190736
   0.99635443  0.33382958  0.54138882
   0.33382994  0.99635443  0.54138882
   0.66958491  0.66958520  0.54084102
   0.17244867  0.17244899  0.54188090
   0.00359742  0.83758441  0.54135022
   0.83758471  0.00359742  0.54135022
   0.99717161  0.49989315  0.58333835
   0.16194024  0.33466863  0.58333163
   0.33466899  0.16194024  0.58333163
   0.49989315  0.99717161  0.58333835
   0.16654507  0.83337662  0.58333022
   0.32705669  0.66512385  0.58333639
   0.00276671  0.00276671  0.58332747
   0.66512356  0.32705634  0.58333639
   0.83337692  0.16654540  0.58333022
   0.67299700  0.83812230  0.58333296
   0.83812260  0.67299730  0.58333296
   0.16248494  0.66612004  0.62527889
   0.33052475  0.49993360  0.62578296
   0.49993360  0.33052439  0.62578296
   0.66611974  0.16248527  0.62527889
   0.49999464  0.82740222  0.62474530
   0.82740252  0.49999464  0.62474530
   0.17237002  0.17237034  0.62476194
   0.00356994  0.83760334  0.62528983
   0.83760364  0.00356994  0.62528983
   0.99641186  0.33378179  0.62529729
   0.33378214  0.99641186  0.62529729
   0.66948594  0.66948624  0.62579426
   0.00130305  0.00130305  0.66689516
   0.99865131  0.49991359  0.66688013
   0.16621522  0.33331812  0.66685857
   0.33331848  0.16621522  0.66685857
   0.49991359  0.99865131  0.66688013
   0.16661356  0.83336831  0.66696664
   0.33283066  0.66660949  0.66684735
   0.50009968  0.50009968  0.66722314
   0.66660919  0.33283030  0.66684735
   0.83336861  0.16661389  0.66696664
   0.66725406  0.83380343  0.66685919
   0.83380373  0.66725436  0.66685919
   0.00012799  0.33372386  0.70841538
   0.16738815  0.16738847  0.70852005
   0.33372422  0.00012799  0.70841538
   0.99986008  0.83364419  0.70844017
   0.16637313  0.66620980  0.70840022
   0.33362005  0.50005194  0.70865994
   0.50005194  0.33361969  0.70865994
   0.66620950  0.16637345  0.70840022
   0.83364449  0.99986008  0.70844017
   0.49995094  0.83257280  0.70848500
   0.66648845  0.66648875  0.70866712
   0.83257309  0.49995094  0.70848500
   0.00017259  0.00017259  0.75004015
   0.99982732  0.50000558  0.74998668
   0.16666527  0.33342046  0.75007175
   0.33342082  0.16666527  0.75007175
   0.50000558  0.99982732  0.74998668
   0.16661631  0.83329546  0.75006869
   0.33320916  0.66656997  0.75008204
   0.50004055  0.50004055  0.75025140
   0.66656968  0.33320881  0.75008204
   0.83329576  0.16661664  0.75006869
   0.66680856  0.83339545  0.75006826
   0.83339575  0.66680886  0.75006826
   0.99996655  0.33342761  0.79156059
   0.16684079  0.16684111  0.79156483
   0.33342796  0.99996655  0.79156059
   0.00005475  0.83329775  0.79154177
   0.16657781  0.66656512  0.79156065
   0.33347487  0.50008696  0.79165969
   0.50008696  0.33347451  0.79165969
   0.66656482  0.16657814  0.79156065
   0.83329805  0.00005475  0.79154177
   0.49992700  0.83329946  0.79158343
   0.66654142  0.66654172  0.79165802
   0.83329976  0.49992700  0.79158343
   0.99999908  0.99999908  0.83296809
   0.00002106  0.50009060  0.83300412
   0.16676602  0.33354870  0.83302019
   0.33354906  0.16676602  0.83302019
   0.50009060  0.00002106  0.83300412
   0.16683089  0.83326680  0.83298783
   0.33337572  0.66668004  0.83310764
   0.49988947  0.49988947  0.83311869
   0.66667975  0.33337537  0.83310764
   0.83326710  0.16683121  0.83298783
   0.66639463  0.83312826  0.83301946
   0.83312855  0.66639493  0.83301946
   0.99993704  0.33347838  0.87440784
   0.16684469  0.16684502  0.87429801
   0.33347874  0.99993704  0.87440784
   0.00005985  0.83323542  0.87430445
   0.16659909  0.66660594  0.87451964
   0.33337471  0.50005846  0.87452476
   0.50005846  0.33337435  0.87452476
   0.66660564  0.16659942  0.87451964
   0.83323572  0.00005985  0.87430445
   0.49991711  0.83331532  0.87450528
   0.66650773  0.66650803  0.87441516
   0.83331562  0.49991711  0.87450528
   0.99999351  0.99999351  0.91545810
   0.00002359  0.50044411  0.91588503
   0.16656145  0.33358399  0.91574156
   0.33358435  0.16656145  0.91574156
   0.50044411  0.00002359  0.91588503
   0.16703737  0.83338544  0.91576884
   0.33329355  0.66664556  0.91590444
   0.49954504  0.49954504  0.91589574
   0.66664526  0.33329319  0.91590444
   0.83338574  0.16703770  0.91576884
   0.66640641  0.83300307  0.91573907
   0.83300337  0.66640670  0.91573907
   0.99997134  0.33380311  0.95754076
   0.16604518  0.16604551  0.95707403
   0.33380346  0.99997134  0.95754076
   0.00001336  0.83391406  0.95707452
   0.16729734  0.66802224  0.95741455
   0.33193520  0.49923853  0.95741008
   0.49923853  0.33193484  0.95741008
   0.66802194  0.16729766  0.95741455
   0.83391436  0.00001336  0.95707452
   0.50070124  0.83272338  0.95740975
   0.66618046  0.66618075  0.95753541
   0.83272368  0.50070124  0.95740975
   0.00002273  0.23042725  0.07442837
   0.23042693  0.00002273  0.07442837
   0.76961299  0.76961299  0.07441035
   0.23165884  0.23165916  0.13438065
   0.99998072  0.76843374  0.13435012
   0.76843403  0.99998072  0.13435012
   0.00001295  0.00001295  0.04840306
[...]
      5.54473      3.20132     15.64108         0.000509     -0.000663     -0.003700
      8.32007      1.58955     15.64926         0.000728      0.002966     -0.003498
      2.77620      8.01435     15.65083         0.001558     -0.001464     -0.001007
      5.55253      6.41144     15.65083        -0.002047      0.000617     -0.001007
      9.24440      3.19372     18.23631         0.000647      0.001282     -0.000041
      0.92417      1.60071     18.23946        -0.000070     -0.000120     -0.002377
     -1.85636      9.60275     18.23631         0.000787      0.001201     -0.000041
     -4.61999      8.00352     18.23846        -0.002472      0.001135     -0.001176
     -1.84896      6.40070     18.22968         0.002779      0.004922     -0.002388
      0.92556      4.80211     18.22970        -0.003524     -0.000877     -0.002633
      3.69597      3.20261     18.22970         0.001002     -0.003490     -0.002633
      6.46764      1.59911     18.22968         0.002873      0.004868     -0.002388
      9.24125      0.00073     18.23846         0.002219     -0.001573     -0.001176
      0.92329      8.00361     18.23042         0.002492     -0.004244     -0.000159
      3.70105      6.41042     18.23590        -0.000834     -0.001444     -0.001212
      6.46969      4.80139     18.23042        -0.004922      0.000036     -0.000159
      0.00008      0.00013     20.82058         0.000045      0.000078      0.007336
     -2.77044      4.79926     20.81608        -0.000794      0.000841      0.004580
      0.00138      3.20226     20.81403        -0.001069     -0.000135      0.005873
      2.77255      1.60233     20.81403         0.000418     -0.000993      0.005873
      5.54150      0.00036     20.81608         0.001126     -0.000267      0.004580
     -2.77132      8.00146     20.81593         0.001482      0.001784      0.003956
      0.00053      6.40234     20.81071         0.000283      0.000605      0.004895
      2.77370      4.80419     20.80903        -0.001040     -0.001801      0.003531
      5.54433      3.20162     20.81071         0.000383      0.000547      0.004895
      8.31513      1.60070     20.81593         0.000804      0.002175      0.003956
      2.77076      8.00263     20.81376        -0.000652     -0.002023      0.004375
      5.54510      6.40087     20.81376        -0.001426     -0.001576      0.004375
     -1.85021      6.40186     23.39893        -0.001903      0.000887      0.002443
      0.92514      4.80074     23.39265        -0.000419     -0.003954      0.001839
      3.69499      3.20156     23.39265        -0.003215     -0.002340      0.001839
      6.46927      1.59860     23.39893         0.001719     -0.001205      0.002443
      0.92487      8.00346     23.39720         0.000522      0.002722      0.001615
      6.46877      4.80269     23.39720         0.002096      0.001813      0.001615
      9.23996      3.20077     23.40231         0.000282      0.000280      0.007006
     -1.84803      9.60243     23.40231         0.000102      0.000385      0.007006
      3.69666      6.40281     23.39532         0.000196      0.000340      0.004135
      0.92396      1.60035     23.40177         0.000645      0.001116      0.001883
     -4.62005      8.00432     23.40316         0.000746      0.000062      0.002196
      9.24197      0.00108     23.40316        -0.000319      0.000677      0.002196
      0.00097      0.00168     25.99241        -0.000422     -0.000731      0.004489
      8.31486      4.80177     25.99332         0.001908      0.000736      0.006746
     -0.00091      3.20134     25.98906         0.001003     -0.000924      0.005689
      2.77290      1.59988     25.98906        -0.001302      0.000406      0.005689
      0.00102      9.60176     25.99332        -0.000316      0.002020      0.006746
     -2.77234      8.00261     25.98911         0.002245     -0.000193      0.007106
     -0.00117      6.40152     25.98610        -0.000096      0.001216      0.007168
      2.77210      4.80141     25.97599        -0.002471     -0.004281      0.006916
      5.54446      3.19975     25.98610         0.001101      0.000525      0.007168
      8.31663      1.60039     25.98911        -0.001290      0.001848      0.007106
      2.77368      8.00406     25.98878        -0.002429      0.000315      0.006675
      5.54488      6.40411     25.98878         0.001487     -0.001946      0.006675
     -1.84960      6.39803     28.58885        -0.001355     -0.000642      0.002934
      0.92635      4.80090     28.57197         0.003305     -0.003585      0.003242
      3.69453      3.20269     28.57197        -0.004757      0.001070      0.003242
      6.46565      1.59722     28.58885         0.000121     -0.001494      0.002934
      0.92821      7.99623     28.58357         0.000890      0.002377      0.004927
      6.46084      4.80196     28.58357         0.001613      0.001959      0.004927
     -1.84915      3.20480     28.58928         0.002053     -0.000559      0.004018
      3.70001      0.00099     28.58928        -0.001510      0.001498      0.004018
      3.69535      6.40055     28.57232        -0.000199     -0.000344      0.004142
      0.92790      1.60718     28.58245         0.000268      0.000464      0.007157
      6.46553      8.00621     28.58735        -0.000428     -0.000170      0.005832
      3.70082      9.60242     28.58735         0.000067     -0.000456      0.005832
      8.30203      4.80139     31.18251         0.000960      0.001010      0.006639
      0.00711      9.59046     31.18251         0.000395      0.001337      0.006639
     -0.00569      6.40155     31.18309        -0.002266      0.001043      0.003672
      5.54675      3.19584     31.18309         0.002036     -0.001441      0.003672
      2.77597      8.00783     31.18278        -0.000907      0.003520      0.001782
      5.54700      6.40798     31.18278         0.003501      0.000974      0.001782
      2.77224      4.80165     31.15935        -0.001182     -0.002046     -0.004303
      8.31705      1.60019     31.17641        -0.002236     -0.001102      0.005028
     -2.77272      8.00287     31.17641         0.000164     -0.002488      0.005028
     -0.00518      3.20090     31.18280         0.001130     -0.001065      0.001888
      2.77466      1.59596     31.18280        -0.001487      0.000446      0.001888
      0.00735      0.01272     31.18007        -0.000544     -0.000943      0.003244
     -1.89181      6.39663     33.77881        -0.005213     -0.000758     -0.000784
      0.89230      4.80115     33.74516        -0.004375      0.001366      0.000254
      3.71177      3.17333     33.74516         0.003371     -0.003106      0.000254
      6.48554      1.55996     33.77881         0.001950     -0.004894     -0.000784
      0.95690      7.94548     33.81225        -0.001875      0.002719      0.004248
      6.40254      4.80144     33.81225         0.003292     -0.000265      0.004248
      9.19742      3.20602     33.77990        -0.004307      0.000719      0.001519
     -1.82221      9.56821     33.77990         0.002776     -0.003370      0.001519
      3.71251      6.43027     33.74572         0.000177      0.000306      0.002259
      0.95613      1.65608     33.81060        -0.000921     -0.001595      0.004804
     -4.60380      8.04345     33.77749         0.003817      0.002341      0.001063
      9.26773      0.03471     33.77749         0.000119      0.004476      0.001063
      8.28580      4.80075     36.39734        -0.004373     -0.000917     -0.000440
     -0.05976      3.21390     36.39692         0.002145     -0.001258      0.001183
      2.81320      1.55520     36.39692        -0.002162      0.001229      0.001183
      0.01467      9.57609     36.39734         0.001392     -0.004246     -0.000440
     -2.77360      8.00307     36.39683        -0.003098      0.000599     -0.000780
     -0.06093      6.38735     36.39721         0.002884     -0.000615      0.000223
      0.01533      0.02655     36.39666         0.002244      0.003886      0.003465
      5.56207      3.14090     36.39721        -0.001975      0.002190      0.000223
      8.31767      1.59953     36.39683         0.002068     -0.002383     -0.000780
      2.81595      8.04875     36.39700         0.000472     -0.000143      0.002602
      5.56245      6.46307     36.39700        -0.000360      0.000337      0.002602
     -1.89133      6.39688     39.01421        -0.003198      0.000515      0.000603
      0.89336      4.80100     39.04566         0.001711     -0.000857     -0.004531
      3.71111      3.17417     39.04566        -0.001598      0.001053     -0.004531
      6.48552      1.56050     39.01421         0.002045     -0.002512      0.000603
      0.95702      7.94577     38.98092        -0.000955      0.000920     -0.005028
      6.40273      4.80169     38.98092         0.001274     -0.000367     -0.005028
      0.95570      1.65532     38.98196        -0.001513     -0.002621     -0.008710
     -4.60421      8.04362     39.01490         0.000850      0.005123     -0.003814
      9.26809      0.03445     39.01490         0.004011      0.003298     -0.003814
      9.19832      3.20556     39.01536        -0.004667     -0.000814      0.000065
     -1.82306      9.56876     39.01536         0.001628     -0.004448      0.000065
      3.71196      6.42931     39.04637         0.001069      0.001851     -0.004463
      0.00721      0.01250     41.61086        -0.000412     -0.000714     -0.004847
      8.30210      4.80095     41.60992         0.000850     -0.000294     -0.006347
     -0.00487      3.20093     41.60857        -0.001599     -0.003956     -0.002643
      2.77452      1.59625     41.60857        -0.002627     -0.003363     -0.002643
      0.00670      9.59030     41.60992        -0.000680      0.000589     -0.006347
     -2.77280      8.00299     41.61532         0.000766     -0.000217     -0.006173
     -0.00514      6.40161     41.60787        -0.003483      0.002908     -0.004003
      2.77280      4.80263     41.63132        -0.000476     -0.000824      0.001534
      5.54653      3.19635     41.60787         0.004260     -0.001562     -0.004003
      8.31719      1.60018     41.61532        -0.000572      0.000555     -0.006173
      2.77622      8.00728     41.60861         0.000988      0.003009     -0.001907
      5.54640      6.40791     41.60861         0.002112      0.002361     -0.001907
     -1.84880      3.20479     44.20151         0.001218     -0.002359     -0.003367
      0.92807      1.60748     44.20804         0.000741      0.001283     -0.004899
      3.69983      0.00128     44.20151        -0.002652     -0.000125     -0.003367
      6.46525      8.00582     44.20305         0.000413     -0.002589     -0.004426
     -1.84872      6.39774     44.20056         0.001278      0.002256     -0.005374
      0.92703      4.80213     44.21677         0.002419     -0.000993     -0.003472
      3.69526      3.20389     44.21677        -0.002070      0.001598     -0.003472
      6.46496      1.59784     44.20056         0.001314      0.002235     -0.005374
      3.70062      9.60198     44.20305        -0.002448     -0.000937     -0.004426
      0.92787      7.99542     44.20585         0.000641     -0.000736     -0.007105
      3.69534      6.40052     44.21721         0.000381      0.000660     -0.003567
      6.46030      4.80127     44.20585        -0.000958      0.000187     -0.007105
      0.00095      0.00164     46.79868        -0.000629     -0.001090     -0.002392
      8.31463      4.80183     46.79534         0.001622     -0.001724     -0.004740
     -0.00045      3.20191     46.80065         0.000845     -0.001584     -0.004935
      2.77316      1.60057     46.80065        -0.001794     -0.000060     -0.004935
      0.00119      9.60159     46.79534        -0.002304      0.000542     -0.004740
     -2.77237      8.00229     46.80046         0.000753      0.000056     -0.006764
     -0.00073      6.40123     46.80129         0.001118      0.001180     -0.005893
      2.77247      4.80206     46.81186         0.000865      0.001498     -0.004884
      5.54399      3.19998     46.80129         0.000463      0.001558     -0.005893
      8.31637      1.60021     46.80046        -0.000328      0.000680     -0.006764
      2.77354      8.00336     46.80043        -0.000648     -0.000812     -0.004760
      5.54434      6.40363     46.80043        -0.000379     -0.000967     -0.004760
      9.23970      3.20215     49.38934         0.000367      0.000252     -0.004515
      0.92504      1.60222     49.38961        -0.000391     -0.000678     -0.006535
     -1.84670      9.60289     49.38934         0.000035      0.000444     -0.004515
     -4.61932      8.00227     49.38817        -0.000061     -0.000956     -0.007494
     -1.84842      6.40115     49.38935        -0.001905      0.000857     -0.003301
      0.92522      4.80247     49.39553        -0.000679     -0.001395     -0.005705
      3.69645      3.20250     49.39553        -0.000868     -0.001286     -0.005705
      6.46776      1.59980     49.38935         0.001695     -0.001221     -0.003301
      9.23984      0.00068     49.38817        -0.000797     -0.000531     -0.007494
      0.92358      8.00240     49.39077         0.000988      0.002159     -0.003244
      3.69563      6.40103     49.39542         0.000359      0.000621     -0.004774
      6.46849      4.80104     49.39077         0.001376      0.001936     -0.003244
      5.54450      9.60335     51.97296         0.000098      0.000170     -0.002747
     -2.77235      4.80243     51.97521        -0.001260      0.000687     -0.001903
     -0.00004      3.20314     51.97621         0.000826      0.001913     -0.001128
      2.77402      1.60153     51.97621         0.001243      0.001672     -0.001128
      5.54520      0.00029     51.97521         0.001225     -0.000748     -0.001903
     -2.76983      8.00201     51.97419         0.003497     -0.003283     -0.001011
      0.00051      6.40229     51.98167        -0.000576      0.002235     -0.001595
      2.77163      4.80061     51.98236        -0.000438     -0.000758     -0.001477
      5.54429      3.20158     51.98167         0.002223      0.000619     -0.001595
      8.31486      1.60226     51.97419        -0.004592      0.001386     -0.001011
      2.77043      8.00079     51.97616        -0.005774      0.000293     -0.002520
      5.54367      6.39966     51.97616         0.003141     -0.004853     -0.002520
      9.23909      3.20264     54.55859         0.000016     -0.000104      0.002855
      0.92506      1.60225     54.55174         0.001122      0.001943      0.004773
     -1.84597      9.60261     54.55859        -0.000098     -0.000039      0.002855
     -4.61892      8.00167     54.55214        -0.000727     -0.001080      0.003483
     -1.84841      6.40154     54.56557        -0.004076      0.001785     -0.001384
      0.92427      4.80219     54.56588         0.002063     -0.005274     -0.000806
      3.69669      3.20153     54.56588        -0.005599     -0.000851     -0.000806
      6.46809      1.60000     54.56557         0.003583     -0.002637     -0.001384
      9.23912      0.00073     54.55214        -0.000572     -0.001170      0.003483
      0.92338      8.00255     54.56467         0.003203      0.003099     -0.003392
      3.69545      6.40071     54.55905         0.000495      0.000858      0.006875
      6.46872      4.80094     54.56467         0.001082      0.004323     -0.003392
      5.54446      9.60329     57.11991         0.000232      0.000402      0.002930
     -2.77428      4.80582     57.14656         0.002972     -0.007893      0.001060
     -0.00251      3.20347     57.13760         0.002718      0.003393      0.003463
      2.77555      1.59956     57.13760         0.001580      0.004051      0.003463
      5.54911      0.00031     57.14656        -0.008321     -0.001372      0.001060
     -2.76820      8.00315     57.13930         0.004288     -0.004797      0.005466
     -0.00021      6.40195     57.14777        -0.000440      0.002399     -0.005791
      2.76972      4.79730     57.14722         0.004164      0.007211     -0.003636
      5.54436      3.20079     57.14777         0.002298      0.000818     -0.005791
      8.31503      1.60425     57.13930        -0.006298      0.001315      0.005466
      2.77125      7.99958     57.13745        -0.005265     -0.000920      0.004978
      5.54222      6.39977     57.13745         0.001835     -0.005019      0.004978
      9.23767      3.20576     59.74566         0.001732     -0.003111      0.010070
      0.92062      1.59457     59.71654         0.002041      0.003534      0.016639
     -1.84256      9.60293     59.74566        -0.003560     -0.000055      0.010070
     -4.62320      8.00819     59.71657         0.002067     -0.004404      0.016236
     -1.84852      6.41514     59.73779        -0.002207     -0.009431      0.002101
      0.91285      4.79431     59.73751         0.007725      0.001791      0.001244
      3.69557      3.18771     59.73751        -0.002311      0.007586      0.001244
      6.47993      1.60671     59.73779        -0.007064     -0.006627      0.002101
      9.24690      0.00028     59.71657        -0.004847     -0.000412      0.016236
      0.93535      7.99686     59.73748        -0.007411      0.007296     -0.000605
      3.69363      6.39756     59.74532         0.002993      0.005184      0.008723
      6.45781      4.80847     59.73748         0.010024     -0.002770     -0.000605
     -1.27727      2.21283      4.64395        -0.001258      0.001938      0.011876
      2.55500      0.00027      4.64395         0.002308     -0.000120      0.011876
      4.26713      7.39088      4.64282         0.000388      0.000672      0.007148
      1.28443      2.22471      8.38467        -0.002740     -0.004746     -0.003200
      6.82813      7.37961      8.38276        -0.001401      0.000772     -0.008897
      2.97686      9.60314      8.38276         0.001369     -0.000828     -0.008897
      0.00007      0.00012      3.02010        -0.002354     -0.004077      0.012602
      7.13273      6.85109      5.39839         0.006532     -0.013087     -0.007517
      1.58848      2.75131      5.39934         0.005337      0.009243     -0.007188
      2.36685      9.60267      5.39839        -0.014599     -0.000887     -0.007517
     -1.58727      2.75163      7.63103        -0.006433      0.013269      0.005782
      3.17662      0.00119      7.63103         0.014708      0.001063      0.005782
      3.95664      6.85311      7.63008        -0.005836     -0.010108      0.008105
      0.00006      0.00010      9.95942         0.001295      0.002242      0.003813
      2.77258      4.80225     36.39440        -0.001986     -0.003440     -0.000962
 -----------------------------------------------------------------------------------
    total drift:                                0.000010     -0.000377     -0.002600


--------------------------------------------------------------------------------------------------------



 mean value of Nose-termostat <S>:     1.000 mean value of <T> :     0.000
 mean temperature <T/S>/<1/S>  :     0.000

     LOOP+:  VPU time10976.03: CPU time12526.76
  
  
 General timing and accounting informations for this job:
 ========================================================
  
                  Total CPU time used (sec):    11077.018
                            User time (sec):     9463.699
                          System time (sec):     1613.319
                         Elapsed time (sec):    12630.295
  
                   Maximum memory used (kb):     2339396.
                   Average memory used (kb):           0.
  
                          Minor page faults:     15686019
                          Major page faults:        37370
                 Voluntary context switches:        87700
