 vasp.4.6.28 25Jul05 complex 
 executed on             LinuxIFC date 2018.11.30  16:09:54
 running on    8 nodes
 distr:  one band on    1 nodes,    8 groups


--------------------------------------------------------------------------------------------------------


 INCAR:
 POTCAR:   PAW_PBE Mg 05Jan2001                   
 POTCAR:   PAW_PBE Zn 06Sep2000                   
 POTCAR:   PAW_PBE Y_sv 06Sep2000                 
 POTCAR:   PAW_PBE Mg 05Jan2001                   
   VRHFIN =Mg: s2p0                                                             
   LEXCH  = PE                                                                  
   EATOM  =    23.0029 eV,    1.6907 Ry                                         
                                                                                
   TITEL  = PAW_PBE Mg 05Jan2001                                                
   LULTRA =        F    use ultrasoft PP ?                                      
   IUNSCR =        1    unscreen: 0-lin 1-nonlin 2-no                           
   RPACOR =    2.000    partial core radius                                     
   POMASS =   24.305; ZVAL   =    2.000    mass and valenz                      
   RCORE  =    2.000    outmost cutoff radius                                   
   RWIGS  =    2.880; RWIGS  =    1.524    wigner-seitz radius (au A)           
   ENMAX  =  210.012; ENMIN  =  157.509 eV                                      
   ICORE  =        2    local potential                                         
   LCOR   =        T    correct aug charges                                     
   LPAW   =        T    paw PP                                                  
   EAUG   =  274.554                                                            
   DEXC   =    -.136                                                            
   RMAX   =    3.182    core radius for proj-oper                               
   RAUG   =    1.300    factor for augmentation sphere                          
   RDEP   =    2.025    radius for radial grids                                 
   QCUT   =   -3.929; QGAM   =    7.858    optimization parameters              
                                                                                
   Description                                                                  
     l     E      TYP  RCUT    TYP  RCUT                                        
     0   .000     23  2.000                                                     
     0  2.000     23  2.000                                                     
     1   .000     23  2.000                                                     
     1  2.000     23  2.000                                                     
     2   .000     23  2.000                                                     
  local pseudopotential read in
  partial core-charges read in
  atomic valenz-charges read in
  non local Contribution for L=           0  read in
    real space projection operators read in
  non local Contribution for L=           0  read in
    real space projection operators read in
  non local Contribution for L=           1  read in
    real space projection operators read in
  non local Contribution for L=           1  read in
    real space projection operators read in
    PAW grid and wavefunctions read in
 
   number of l-projection  operators is LMAX  =           4
   number of lm-projection operators is LMMAX =           8
 
 POTCAR:   PAW_PBE Zn 06Sep2000                   
   VRHFIN =Zn: d10 p2                                                           
   LEXCH  = PE                                                                  
   EATOM  =  1749.0928 eV,  128.5547 Ry                                         
                                                                                
   TITEL  = PAW_PBE Zn 06Sep2000                                                
   LULTRA =        F    use ultrasoft PP ?                                      
   IUNSCR =        1    unscreen: 0-lin 1-nonlin 2-no                           
   RPACOR =    2.000    partial core radius                                     
   POMASS =   65.390; ZVAL   =   12.000    mass and valenz                      
   RCORE  =    2.300    outmost cutoff radius                                   
   RWIGS  =    2.400; RWIGS  =    1.270    wigner-seitz radius (au A)           
   ENMAX  =  276.727; ENMIN  =  207.545 eV                                      
   RCLOC  =    1.828    cutoff for local pot                                    
   LCOR   =        T    correct aug charges                                     
   LPAW   =        T    paw PP                                                  
   EAUG   =  575.892                                                            
   DEXC   =    -.003                                                            
   RMAX   =    2.772    core radius for proj-oper                               
   RAUG   =    1.300    factor for augmentation sphere                          
   RDEP   =    2.324    radius for radial grids                                 
   QCUT   =   -4.510; QGAM   =    9.020    optimization parameters              
                                                                                
   Description                                                                  
     l     E      TYP  RCUT    TYP  RCUT                                        
     2   .000     23  2.300                                                     
     2   .000     23  2.300                                                     
     0   .000     23  2.300                                                     
     0   .000     23  2.300                                                     
     1  -.200     23  2.300                                                     
     1   .000     23  2.300                                                     
     3   .000      7   .000                                                     
  local pseudopotential read in
  partial core-charges read in
  atomic valenz-charges read in
  non local Contribution for L=           2  read in
    real space projection operators read in
  non local Contribution for L=           2  read in
    real space projection operators read in
  non local Contribution for L=           0  read in
    real space projection operators read in
  non local Contribution for L=           0  read in
    real space projection operators read in
  non local Contribution for L=           1  read in
    real space projection operators read in
  non local Contribution for L=           1  read in
    real space projection operators read in
    PAW grid and wavefunctions read in
 
   number of l-projection  operators is LMAX  =           6
   number of lm-projection operators is LMMAX =          18
 
 POTCAR:   PAW_PBE Y_sv 06Sep2000                 
   VRHFIN =Y: 4s4p5s4d                                                          
   LEXCH  = PE                                                                  
   EATOM  =  1046.2256 eV,   76.8954 Ry                                         
                                                                                
   TITEL  = PAW_PBE Y_sv 06Sep2000                                              
   LULTRA =        F    use ultrasoft PP ?                                      
   IUNSCR =        1    unscreen: 0-lin 1-nonlin 2-no                           
   RPACOR =    2.200    partial core radius                                     
   POMASS =   88.906; ZVAL   =   11.000    mass and valenz                      
   RCORE  =    2.600    outmost cutoff radius                                   
   RWIGS  =    3.430; RWIGS  =    1.815    wigner-seitz radius (au A)           
   ENMAX  =  211.641; ENMIN  =  158.731 eV                                      
   RCLOC  =    2.212    cutoff for local pot                                    
   LCOR   =        T    correct aug charges                                     
   LPAW   =        T    paw PP                                                  
   EAUG   =  363.258                                                            
   DEXC   =     .000                                                            
   RMAX   =    3.169    core radius for proj-oper                               
   RAUG   =    1.300    factor for augmentation sphere                          
   RDEP   =    2.745    radius for radial grids                                 
   QCUT   =   -3.944; QGAM   =    7.888    optimization parameters              
                                                                                
   Description                                                                  
     l     E      TYP  RCUT    TYP  RCUT                                        
     0   .000     23  2.600                                                     
     0   .000     23  2.600                                                     
     1   .000     23  2.600                                                     
     1   .000     23  2.600                                                     
     2   .000     23  2.600                                                     
     2   .000     23  2.600                                                     
     3   .000      7   .000                                                     
  local pseudopotential read in
  partial core-charges read in
  atomic valenz-charges read in
  non local Contribution for L=           0  read in
    real space projection operators read in
  non local Contribution for L=           0  read in
    real space projection operators read in
  non local Contribution for L=           1  read in
    real space projection operators read in
  non local Contribution for L=           1  read in
    real space projection operators read in
  non local Contribution for L=           2  read in
    real space projection operators read in
  non local Contribution for L=           2  read in
    real space projection operators read in
    PAW grid and wavefunctions read in
 
   number of l-projection  operators is LMAX  =           6
   number of lm-projection operators is LMMAX =          18
 
 Optimization of the real space projectors (new method)

 maximal supplied QI-value         = 18.90
 optimisation between [QCUT,QGAM] = [  8.69, 17.57] = [ 21.16, 86.49] Ry 
 Optimized for a Real-space Cutoff    1.50 Angstroem

   l    n(q)    QCUT    max X(q) W(low)/X(q) W(high)/X(q)  e(spline) 
   0      8     8.693    21.263    0.25E-04    0.57E-05    0.11E-07
   0      8     8.693    32.896    0.17E-03    0.18E-03    0.83E-07
   1      7     8.693    18.024    0.20E-04    0.82E-04    0.23E-07
   1      7     8.693    48.877    0.92E-04    0.21E-03    0.19E-06
 Optimization of the real space projectors (new method)

 maximal supplied QI-value         = 16.25
 optimisation between [QCUT,QGAM] = [  8.78, 17.71] = [ 21.57, 87.87] Ry 
 Optimized for a Real-space Cutoff    1.55 Angstroem

   l    n(q)    QCUT    max X(q) W(low)/X(q) W(high)/X(q)  e(spline) 
   2      7     8.776     5.523    0.25E-04    0.61E-04    0.37E-07
   2      7     8.776     9.671    0.20E-03    0.41E-03    0.27E-06
   0      8     8.776    11.246    0.21E-04    0.15E-05    0.57E-08
   0      8     8.776    34.692    0.16E-03    0.15E-03    0.68E-07
   1      8     8.776     4.877    0.32E-04    0.71E-04    0.29E-07
   1      8     8.776     6.599    0.91E-04    0.23E-03    0.83E-07
 Optimization of the real space projectors (new method)

 maximal supplied QI-value         = 14.36
 optimisation between [QCUT,QGAM] = [  8.76, 17.67] = [ 21.49, 87.39] Ry 
 Optimized for a Real-space Cutoff    1.96 Angstroem

   l    n(q)    QCUT    max X(q) W(low)/X(q) W(high)/X(q)  e(spline) 
   0     10     8.761     8.406    0.17E-04    0.25E-05    0.14E-07
   0     10     8.761    10.301    0.37E-04    0.12E-04    0.59E-07
   1     10     8.761     4.485    0.11E-05    0.41E-05    0.34E-07
   1     10     8.761    11.894    0.99E-05    0.55E-04    0.20E-06
   2      9     8.761     4.489    0.16E-04    0.99E-05    0.66E-07
   2      9     8.761    42.100    0.20E-03    0.66E-04    0.63E-06
 PAW_PBE Mg 05Jan2001                   :
 energy of atom  1       EATOM=  -23.0029
 kinetic energy error for atom=    0.0002 (will be added to EATOM!!)
 PAW_PBE Zn 06Sep2000                   :
 energy of atom  2       EATOM=-1749.0928
 kinetic energy error for atom=    0.0293 (will be added to EATOM!!)
 PAW_PBE Y_sv 06Sep2000                 :
 energy of atom  3       EATOM=-1046.2256
 kinetic energy error for atom=    0.0083 (will be added to EATOM!!)
 
 EXHCAR: internal setup
 exchange correlation table for  LEXCH =        8
   RHO(1)=    0.500       N(1)  =     2000
   RHO(2)=  100.500       N(2)  =     4000
 
 POSCAR: New structure                           
  positions in direct lattice
  velocities in cartesian coordinates
 


--------------------------------------------------------------------------------------------------------


 ion  position               nearest neighbor table
   1  1.000  0.165  0.999-  14 3.17   2 3.17  12 3.17  21 3.17   7 3.19   5 3.19 270 3.21 262 3.21
                           263 3.22  11 3.23   4 3.24 280 3.56
   2  0.165  1.000  0.999-  15 3.17   1 3.17  12 3.17  17 3.17   3 3.19   5 3.19 265 3.21 264 3.21
                           263 3.22   8 3.23   6 3.24 280 3.56
   3  1.000  0.668  0.999-  17 3.13  23 3.15 273 3.17 265 3.18 266 3.18   4 3.18  11 3.18  12 3.18
                             2 3.19  10 3.23   8 3.24  13 3.26
   4  0.165  0.502  0.999-  14 3.11  11 3.17   3 3.18 266 3.18 262 3.18   8 3.19   9 3.20 267 3.21
                            18 3.21  13 3.22   5 3.23   1 3.24
   5  0.332  0.332  0.998-  15 3.14  14 3.14 263 3.17 268 3.17 267 3.17  10 3.18   9 3.18   2 3.19
                             1 3.19   6 3.23   4 3.23  19 3.26
   6  0.502  0.165  0.999-  15 3.11   8 3.17   7 3.18 269 3.18 264 3.18  11 3.19  10 3.20 268 3.21
                            20 3.21  16 3.22   5 3.23   2 3.24
   7  0.668  1.000  0.999-  21 3.13  22 3.15 271 3.17 270 3.18 269 3.18   6 3.18   8 3.18  12 3.18
                             1 3.19   9 3.23  11 3.24  16 3.26
   8  0.337  0.835  0.999-  17 3.11   6 3.17 271 3.18   7 3.18 264 3.19   4 3.19   9 3.20 266 3.20
                            18 3.21  16 3.21   2 3.23   3 3.24
   9  0.498  0.663  0.999-  22 3.12  10 3.17   5 3.18 267 3.19 272 3.19   8 3.20   4 3.20  18 3.20
                           271 3.21  19 3.22   7 3.23  12 3.23
  10  0.663  0.498  0.999-  23 3.12   9 3.17   5 3.18 268 3.19 272 3.19  11 3.20   6 3.20  20 3.20
                           273 3.21  19 3.22   3 3.23  12 3.23
  11  0.835  0.337  0.999-  21 3.11   4 3.17 273 3.18   3 3.18 262 3.19   6 3.19  10 3.20 269 3.20
                            20 3.21  13 3.21   1 3.23   7 3.24
  12  0.835  0.835  1.000-   2 3.17   1 3.17  23 3.17  22 3.17   3 3.18   7 3.18 272 3.21 270 3.22
                           265 3.22   9 3.23  10 3.23 280 3.55
  13  1.000  0.501  0.041-  17 3.13  29 3.13  23 3.13  24 3.13  14 3.20  21 3.20  20 3.20  18 3.20
                            11 3.21   4 3.22   3 3.26 281 3.65
  14  0.173  0.342  0.039- 274 2.74   4 3.11  18 3.12  19 3.12   5 3.14   1 3.17  13 3.20  15 3.23
                            24 3.32 280 3.33  21 3.33 282 3.35
  15  0.342  0.173  0.039- 275 2.74   6 3.11  20 3.12  19 3.12   5 3.14   2 3.17  16 3.20  14 3.23
                            25 3.32 280 3.33  17 3.33 282 3.35
  16  0.501  1.000  0.041-  21 3.13  26 3.13  22 3.13  25 3.13  15 3.20  17 3.20  18 3.20  20 3.20
                             8 3.21   6 3.22   7 3.26 283 3.65
  17  0.168  0.826  0.039- 275 2.74   8 3.11  18 3.12  13 3.13   3 3.13   2 3.17  16 3.20  23 3.23
                           280 3.33  26 3.33  15 3.33 281 3.34
  18  0.334  0.667  0.041-  22 3.12  17 3.12  14 3.12  24 3.15  26 3.16  27 3.17  19 3.20  16 3.20
                             9 3.20  13 3.20   4 3.21   8 3.21
  19  0.498  0.498  0.042-  14 3.12  15 3.12  28 3.13  27 3.13  18 3.20  20 3.20  22 3.20  23 3.20
                            10 3.22   9 3.22   5 3.26 282 3.64
  20  0.667  0.334  0.041-  23 3.12  21 3.12  15 3.12  25 3.15  29 3.16  28 3.17  19 3.20  13 3.20
                            10 3.20  16 3.20   6 3.21  11 3.21
  21  0.826  0.168  0.039- 274 2.74  11 3.11  20 3.12  16 3.13   7 3.13   1 3.17  13 3.20  22 3.23
                           280 3.33  29 3.33  14 3.33 283 3.34
  22  0.658  0.831  0.040- 276 2.75  18 3.12   9 3.12  16 3.13   7 3.15  12 3.17  19 3.20  21 3.23
                            27 3.31  23 3.32 280 3.33 283 3.34
  23  0.831  0.658  0.040- 276 2.75  20 3.12  10 3.12  13 3.13   3 3.15  12 3.17  19 3.20  17 3.23
                            28 3.31  22 3.32 280 3.33 281 3.34
  24  0.167  0.513  0.083- 274 2.77  30 3.09  26 3.10  27 3.10  13 3.13  18 3.15  29 3.19 284 3.32
                            14 3.32  31 3.33 282 3.38 281 3.53
  25  0.513  0.167  0.083- 275 2.77  33 3.09  29 3.10  28 3.10  16 3.13  20 3.15  26 3.19 285 3.32
                            15 3.32  32 3.33 282 3.38 283 3.53
  26  0.348  0.835  0.083- 275 2.77  34 3.10  27 3.10  24 3.10  16 3.13  18 3.16  25 3.19 285 3.32
                            17 3.33  30 3.34 281 3.39 283 3.52
  27  0.489  0.654  0.083- 276 2.77  31 3.09  26 3.10  24 3.10  19 3.13  28 3.16  18 3.17  22 3.31
                           286 3.34  34 3.36 283 3.39 282 3.54
  28  0.654  0.489  0.083- 276 2.77  32 3.09  29 3.10  25 3.10  19 3.13  27 3.16  20 3.17  23 3.31
                           286 3.34  35 3.36 281 3.39 282 3.54
  29  0.835  0.348  0.083- 274 2.77  35 3.10  28 3.10  25 3.10  13 3.13  20 3.16  24 3.19 284 3.32
                            21 3.33  33 3.34 283 3.39 281 3.52
  30  0.167  0.654  0.125- 278 2.76  31 3.09  24 3.09  34 3.10  36 3.12  35 3.18  41 3.23  40 3.30
                           281 3.32  26 3.34 285 3.39 284 3.54
  31  0.346  0.512  0.125- 277 2.77  27 3.09  30 3.09  42 3.10  34 3.11  41 3.18  32 3.19 282 3.32
                            24 3.33  37 3.36 284 3.38 286 3.54
  32  0.512  0.346  0.125- 277 2.77  28 3.09  33 3.09  42 3.10  35 3.11  43 3.18  31 3.19 282 3.32
                            25 3.33  38 3.36 285 3.38 286 3.54
  33  0.654  0.167  0.125- 279 2.76  32 3.09  25 3.09  35 3.10  39 3.12  34 3.18  43 3.23  44 3.30
                           283 3.32  29 3.34 284 3.39 285 3.54
  34  0.488  0.836  0.126- 279 2.77  30 3.10  26 3.10  31 3.11  39 3.14  33 3.18  41 3.18  45 3.28
                           283 3.34  27 3.36 286 3.39 285 3.53
  35  0.836  0.488  0.126- 278 2.77  33 3.10  29 3.10  32 3.11  36 3.14  30 3.18  43 3.18  46 3.28
                           281 3.34  28 3.36 286 3.39 284 3.53
  36  0.005  0.501  0.167-  37 3.09  44 3.11  30 3.12  35 3.14  46 3.18  40 3.18  41 3.20  50 3.21
                            57 3.24  47 3.26  43 3.26 284 3.67
  37  0.164  0.338  0.169- 277 2.73  36 3.09  51 3.11  47 3.14  41 3.16  56 3.17  44 3.20  42 3.20
                           287 3.30  38 3.33 284 3.35  31 3.36
  38  0.338  0.164  0.169- 277 2.73  39 3.09  52 3.11  48 3.14  43 3.16  56 3.17  40 3.20  42 3.20
                           287 3.30  37 3.33 285 3.35  32 3.36
  39  0.501  0.005  0.167-  38 3.09  40 3.11  33 3.12  34 3.14  45 3.18  44 3.18  43 3.20  53 3.21
                            55 3.24  48 3.26  41 3.26 285 3.67
  40  0.177  0.831  0.169- 278 2.76  39 3.11  41 3.13  50 3.13  48 3.14  36 3.18  49 3.18  38 3.20
                            30 3.30  46 3.30 285 3.36 287 3.36
  41  0.338  0.666  0.168-  45 3.09  40 3.13  42 3.15  37 3.16  31 3.18  34 3.18  55 3.19  36 3.20
                            51 3.21  50 3.21  30 3.23  39 3.26
  42  0.497  0.497  0.166-  31 3.10  32 3.10  41 3.15  43 3.15  37 3.20  38 3.20  45 3.23  46 3.23
                           288 3.26  51 3.30  52 3.30 286 3.63
  43  0.666  0.338  0.168-  46 3.09  44 3.13  42 3.15  38 3.16  32 3.18  35 3.18  57 3.19  39 3.20
                            52 3.21  53 3.21  33 3.23  36 3.26
  44  0.831  0.177  0.169- 279 2.76  36 3.11  43 3.13  53 3.13  47 3.14  39 3.18  54 3.18  37 3.20
                            33 3.30  45 3.30 284 3.36 287 3.36
  45  0.660  0.834  0.168- 279 2.71  41 3.09  55 3.15  54 3.15  39 3.18 288 3.19  42 3.23  34 3.28
                           287 3.29  44 3.30 286 3.33  46 3.34
  46  0.834  0.660  0.168- 278 2.71  43 3.09  57 3.15  49 3.15  36 3.18 288 3.19  42 3.23  35 3.28
                           287 3.29  40 3.30 286 3.33  45 3.34
  47  0.999  0.331  0.210-  37 3.14  44 3.14  57 3.15  68 3.16  51 3.16  54 3.16  65 3.17  58 3.17
                            50 3.19  56 3.19  53 3.22  36 3.26
  48  0.331  0.999  0.210-  38 3.14  40 3.14  55 3.15  69 3.16  52 3.16  49 3.16  66 3.17  59 3.17
                            53 3.19  56 3.19  50 3.22  39 3.26
  49  0.002  0.833  0.209-  56 3.15  46 3.15  48 3.16  40 3.18  64 3.19  57 3.21  50 3.21  69 3.23
                            54 3.24  63 3.25 288 3.25 287 3.55
  50  0.167  0.663  0.210-  40 3.13  57 3.15  51 3.17  58 3.18  60 3.18  47 3.19  55 3.19  69 3.19
                            41 3.21  36 3.21  49 3.21  48 3.22
  51  0.328  0.494  0.210-  37 3.11  60 3.14  47 3.16  50 3.17  65 3.17  52 3.19  56 3.19  41 3.21
                            67 3.21 288 3.22  42 3.30  55 3.31
  52  0.494  0.328  0.210-  38 3.11  61 3.14  48 3.16  53 3.17  66 3.17  51 3.19  56 3.19  43 3.21
                            67 3.21 288 3.22  42 3.30  57 3.31
  53  0.663  0.167  0.210-  44 3.13  55 3.15  52 3.17  59 3.18  61 3.18  48 3.19  57 3.19  68 3.19
                            43 3.21  39 3.21  54 3.21  47 3.22
  54  0.833  0.002  0.209-  56 3.15  45 3.15  47 3.16  44 3.18  64 3.19  55 3.21  53 3.21  68 3.23
                            49 3.24  62 3.25 288 3.25 287 3.55
  55  0.499  0.839  0.210-  48 3.15  45 3.15  53 3.15  60 3.15  59 3.18  41 3.19  50 3.19  54 3.21
                            62 3.22  39 3.24 288 3.26  51 3.31
  56  0.161  0.161  0.209-  54 3.15  49 3.15  37 3.17  38 3.17  51 3.19  52 3.19  47 3.19  48 3.19
                            64 3.20  65 3.22  66 3.22 287 3.53
  57  0.839  0.499  0.210-  47 3.15  46 3.15  50 3.15  61 3.15  58 3.18  43 3.19  53 3.19  49 3.21
                            63 3.22  36 3.24 288 3.26  52 3.31
  58  0.003  0.500  0.251-  73 3.15  70 3.17  47 3.17  50 3.18  57 3.18  65 3.18  68 3.18  80 3.18
                            69 3.19  63 3.21  60 3.22  61 3.24
  59  0.500  0.003  0.251-  76 3.15  71 3.17  48 3.17  53 3.18  55 3.18  66 3.18  69 3.18  78 3.18
                            68 3.19  62 3.21  61 3.22  60 3.24
  60  0.339  0.667  0.251-  51 3.14  67 3.15  62 3.15  55 3.15  50 3.18  78 3.19  74 3.19  58 3.22
                            69 3.23  73 3.24  59 3.24  65 3.26
  61  0.667  0.339  0.251-  52 3.14  67 3.15  63 3.15  57 3.15  53 3.18  80 3.19  75 3.19  59 3.22
                            68 3.23  76 3.24  58 3.24  66 3.26
  62  0.667  0.836  0.252-  64 3.14  77 3.15  78 3.15  60 3.15  79 3.19  68 3.19  59 3.21  55 3.22
                           288 3.25  54 3.25  63 3.25  67 3.26
  63  0.836  0.667  0.252-  64 3.14  72 3.15  80 3.15  61 3.15  79 3.19  69 3.19  58 3.21  57 3.22
                           288 3.25  49 3.25  62 3.25  67 3.26
  64  0.994  0.994  0.251-  63 3.14  62 3.14  77 3.18  72 3.18  54 3.19  49 3.19  56 3.20  65 3.21
                            66 3.21  69 3.23  68 3.23  81 3.23
  65  0.162  0.328  0.251-  81 3.16  47 3.17  70 3.17  68 3.17  51 3.17  66 3.17  58 3.18  74 3.19
                            64 3.21  67 3.21  56 3.22  60 3.26
  66  0.328  0.162  0.251-  81 3.16  48 3.17  71 3.17  69 3.17  52 3.17  65 3.17  59 3.18  75 3.19
                            64 3.21  67 3.21  56 3.22  61 3.26
  67  0.496  0.496  0.252-  74 3.13  75 3.13  60 3.15  61 3.15  79 3.18  66 3.21  65 3.21  51 3.21
                            52 3.21 288 3.24  62 3.26  63 3.26
  68  0.832  0.168  0.251-  47 3.16  76 3.16  65 3.17  70 3.18  58 3.18  62 3.19  59 3.19  77 3.19
                            53 3.19  54 3.23  61 3.23  64 3.23
  69  0.168  0.832  0.251-  48 3.16  73 3.16  66 3.17  71 3.18  59 3.18  63 3.19  58 3.19  72 3.19
                            50 3.19  49 3.23  60 3.23  64 3.23
  70  1.000  0.333  0.293-  65 3.17  89 3.17  58 3.17  82 3.17  92 3.17  68 3.18  77 3.19  74 3.20
                            80 3.20  81 3.20  76 3.20  73 3.21
  71  0.333  1.000  0.293-  66 3.17  90 3.17  59 3.17  83 3.17  93 3.17  69 3.18  72 3.19  75 3.20
                            78 3.20  81 3.20  73 3.20  76 3.21
  72  0.000  0.833  0.293-  63 3.15  90 3.17  91 3.17  64 3.18  87 3.18  81 3.19  71 3.19  69 3.19
                            79 3.20  80 3.20  73 3.20  77 3.21
  73  0.167  0.667  0.292-  58 3.15  69 3.16  84 3.18  82 3.18  90 3.18  74 3.19  78 3.19  71 3.20
                            72 3.20  80 3.20  70 3.21  60 3.24
  74  0.332  0.499  0.293-  67 3.13  92 3.17  84 3.18  88 3.19  73 3.19  60 3.19  65 3.19  70 3.20
                            75 3.20  81 3.21  78 3.21  79 3.21
  75  0.499  0.332  0.293-  67 3.13  93 3.17  85 3.18  88 3.19  76 3.19  61 3.19  66 3.19  71 3.20
                            74 3.20  81 3.21  80 3.21  79 3.21
  76  0.667  0.167  0.292-  59 3.15  68 3.16  85 3.18  83 3.18  89 3.18  75 3.19  80 3.19  70 3.20
                            77 3.20  78 3.20  71 3.21  61 3.24
  77  0.833  0.000  0.293-  62 3.15  89 3.17  91 3.17  64 3.18  86 3.18  81 3.19  70 3.19  68 3.19
                            79 3.20  78 3.20  76 3.20  72 3.21
  78  0.500  0.834  0.292-  62 3.15  83 3.17  84 3.18  59 3.18  60 3.19  86 3.19  73 3.19  71 3.20
                            77 3.20  76 3.20  79 3.21  74 3.21
  79  0.667  0.667  0.293-  86 3.17  87 3.17  88 3.17  67 3.18  62 3.19  63 3.19  77 3.20  72 3.20
                            78 3.21  80 3.21  74 3.21  75 3.21
  80  0.834  0.500  0.292-  63 3.15  82 3.17  85 3.18  58 3.18  61 3.19  87 3.19  76 3.19  70 3.20
                            72 3.20  73 3.20  79 3.21  75 3.21
  81  0.165  0.165  0.293-  65 3.16  66 3.16  91 3.17  92 3.17  93 3.17  77 3.19  72 3.19  70 3.20
                            71 3.20  74 3.21  75 3.21  64 3.23
  82  0.000  0.500  0.334-  70 3.17  80 3.17  97 3.18  73 3.18 104 3.18  94 3.19  90 3.19  87 3.20
                            92 3.20  85 3.20  84 3.20  89 3.20
  83  0.500  0.000  0.334-  71 3.17  78 3.17 100 3.18  76 3.18 102 3.18  95 3.19  89 3.19  86 3.20
                            93 3.20  84 3.20  85 3.20  90 3.20
  84  0.334  0.667  0.334-  74 3.18  73 3.18 102 3.18  78 3.18  97 3.18  98 3.18  86 3.19  88 3.20
                            90 3.20  92 3.20  83 3.20  82 3.20
  85  0.667  0.334  0.334-  75 3.18  76 3.18 104 3.18  80 3.18 100 3.18  99 3.18  87 3.19  88 3.20
                            89 3.20  93 3.20  82 3.20  83 3.20
  86  0.667  0.833  0.334-  79 3.17 102 3.17 101 3.17 103 3.18  77 3.18  78 3.19  84 3.19  88 3.19
                            91 3.20  87 3.20  83 3.20  89 3.20
  87  0.833  0.667  0.334-  79 3.17 104 3.17  96 3.17 103 3.18  72 3.18  80 3.19  85 3.19  88 3.19
                            91 3.20  86 3.20  82 3.20  90 3.20
  88  0.500  0.500  0.334-  79 3.17  98 3.17  99 3.17 103 3.18  74 3.19  75 3.19  86 3.19  87 3.19
                            84 3.20  85 3.20  93 3.20  92 3.20
  89  0.833  0.167  0.334-  70 3.17  77 3.17 100 3.18  76 3.18  94 3.18 101 3.18  83 3.19  85 3.20
                            86 3.20  91 3.20  82 3.20  92 3.21
  90  0.167  0.833  0.334-  71 3.17  72 3.17  97 3.18  73 3.18  95 3.18  96 3.18  82 3.19  84 3.20
                            87 3.20  91 3.20  83 3.20  93 3.21
  91  0.999  0.999  0.334-  81 3.17  77 3.17  72 3.17 105 3.18 101 3.18  96 3.18  87 3.20  86 3.20
                            90 3.20  89 3.20  92 3.21  93 3.21
  92  0.167  0.333  0.334-  70 3.17  81 3.17  74 3.17  98 3.18 105 3.18  94 3.18  93 3.19  84 3.20
                            88 3.20  82 3.20  91 3.21  89 3.21
  93  0.333  0.167  0.334-  71 3.17  81 3.17  75 3.17  99 3.18 105 3.18  95 3.18  92 3.19  85 3.20
                            88 3.20  83 3.20  91 3.21  90 3.21
  94  0.000  0.333  0.375- 116 3.18 106 3.18 113 3.18  89 3.18  92 3.18  82 3.19 105 3.20 101 3.20
                            98 3.20 100 3.20 104 3.20  97 3.20
  95  0.333  0.000  0.375- 117 3.18 107 3.18 114 3.18  90 3.18  93 3.18  83 3.19 105 3.20  96 3.20
                            99 3.20  97 3.20 102 3.20 100 3.20
  96  0.000  0.833  0.375-  87 3.17 115 3.18  91 3.18 114 3.18  90 3.18 111 3.18 104 3.20 105 3.20
                           103 3.20  97 3.20  95 3.20 101 3.20
  97  0.167  0.667  0.375-  90 3.18  82 3.18  84 3.18 108 3.18 114 3.18 106 3.19  98 3.20  96 3.20
                           104 3.20  95 3.20 102 3.20  94 3.20
  98  0.333  0.500  0.375-  88 3.17  92 3.18  84 3.18 108 3.18 116 3.18 112 3.18  99 3.20  97 3.20
                            94 3.20 103 3.20 105 3.20 102 3.20
  99  0.500  0.333  0.375-  88 3.17  93 3.18  85 3.18 109 3.18 117 3.18 112 3.18  98 3.20 100 3.20
                            95 3.20 103 3.20 105 3.20 104 3.20
 100  0.667  0.167  0.375-  89 3.18  83 3.18  85 3.18 109 3.18 113 3.18 107 3.19  99 3.20 101 3.20
                           102 3.20  94 3.20 104 3.20  95 3.20
 101  0.833  0.000  0.375-  86 3.17 115 3.18  91 3.18 113 3.18  89 3.18 110 3.18 102 3.20 105 3.20
                           103 3.20 100 3.20  94 3.20  96 3.20
 102  0.500  0.834  0.375-  86 3.17  84 3.18 107 3.18 108 3.18  83 3.18 110 3.19 101 3.20 103 3.20
                           100 3.20  95 3.20  97 3.20  98 3.20
 103  0.667  0.667  0.376- 110 3.17 111 3.17 112 3.18  88 3.18  86 3.18  87 3.18 102 3.20 104 3.20
                           101 3.20  96 3.20  98 3.20  99 3.20
 104  0.834  0.500  0.375-  87 3.17  85 3.18 106 3.18 109 3.18  82 3.18 111 3.19  96 3.20 103 3.20
                            97 3.20  94 3.20 100 3.20  99 3.20
 105  0.167  0.167  0.375-  91 3.18  92 3.18  93 3.18 116 3.18 117 3.18 115 3.18  94 3.20  95 3.20
                           101 3.20  96 3.20  98 3.20  99 3.20
 106  0.000  0.500  0.417-  94 3.18 104 3.18 121 3.18  97 3.19 118 3.19 128 3.19 116 3.20 114 3.20
                           111 3.20 113 3.20 108 3.20 109 3.20
 107  0.500  0.000  0.417-  95 3.18 102 3.18 124 3.18 100 3.19 119 3.19 126 3.19 117 3.20 113 3.20
                           110 3.20 114 3.20 109 3.20 108 3.20
 108  0.333  0.667  0.417-  98 3.18  97 3.18 102 3.18 126 3.19 121 3.19 122 3.19 112 3.20 114 3.20
                           110 3.20 106 3.20 107 3.20 116 3.20
 109  0.667  0.333  0.417-  99 3.18 100 3.18 104 3.18 128 3.19 124 3.19 123 3.19 112 3.20 113 3.20
                           111 3.20 107 3.20 106 3.20 117 3.20
 110  0.667  0.833  0.417- 103 3.17 125 3.18 126 3.18 101 3.18 102 3.19 127 3.19 111 3.20 112 3.20
                           115 3.20 108 3.20 107 3.20 113 3.20
 111  0.833  0.667  0.417- 103 3.17 120 3.18 128 3.18  96 3.18 104 3.19 127 3.19 110 3.20 112 3.20
                           115 3.20 109 3.20 106 3.20 114 3.20
 112  0.500  0.500  0.417- 103 3.18 122 3.18 123 3.18 127 3.18  98 3.18  99 3.18 108 3.20 109 3.20
                           110 3.20 111 3.20 117 3.20 116 3.20
 113  0.833  0.167  0.417- 101 3.18  94 3.18 118 3.18 100 3.18 124 3.19 125 3.19 115 3.20 109 3.20
                           107 3.20 116 3.20 106 3.20 110 3.20
 114  0.167  0.833  0.417-  96 3.18  95 3.18 119 3.18  97 3.18 121 3.19 120 3.19 115 3.20 108 3.20
                           106 3.20 117 3.20 107 3.20 111 3.20
 115  0.000  0.000  0.417- 101 3.18  96 3.18 129 3.18 105 3.18 125 3.19 120 3.19 114 3.20 113 3.20
                           111 3.20 110 3.20 116 3.20 117 3.20
 116  0.167  0.333  0.417-  94 3.18 105 3.18  98 3.18 129 3.18 122 3.19 118 3.19 117 3.20 106 3.20
                           115 3.20 113 3.20 108 3.20 112 3.20
 117  0.333  0.167  0.417-  95 3.18 105 3.18  99 3.18 129 3.18 123 3.19 119 3.19 116 3.20 107 3.20
                           115 3.20 114 3.20 109 3.20 112 3.20
 118  0.000  0.333  0.458- 113 3.18 140 3.19 130 3.19 116 3.19 106 3.19 137 3.19 129 3.20 124 3.20
                           121 3.20 128 3.20 122 3.20 125 3.20
 119  0.333  0.000  0.458- 114 3.18 141 3.19 131 3.19 117 3.19 107 3.19 138 3.19 129 3.20 121 3.20
                           124 3.20 126 3.20 123 3.20 120 3.20
 120  1.000  0.833  0.458- 111 3.18 139 3.18 138 3.19 115 3.19 114 3.19 135 3.19 125 3.20 127 3.20
                           128 3.20 121 3.20 129 3.20 119 3.20
 121  0.167  0.667  0.458- 106 3.18 114 3.19 108 3.19 132 3.19 138 3.19 130 3.19 120 3.20 122 3.20
                           119 3.20 118 3.20 128 3.20 126 3.20
 122  0.333  0.500  0.459- 112 3.18 132 3.18 136 3.18 116 3.19 140 3.19 108 3.19 123 3.20 126 3.20
                           121 3.20 127 3.20 129 3.20 118 3.20
 123  0.500  0.333  0.459- 112 3.18 133 3.18 136 3.18 117 3.19 141 3.19 109 3.19 122 3.20 128 3.20
                           124 3.20 127 3.20 129 3.20 119 3.20
 124  0.667  0.167  0.458- 107 3.18 113 3.19 109 3.19 133 3.19 137 3.19 131 3.19 125 3.20 123 3.20
                           118 3.20 119 3.20 126 3.20 128 3.20
 125  0.833  1.000  0.458- 110 3.18 139 3.18 137 3.19 115 3.19 113 3.19 134 3.19 120 3.20 127 3.20
                           126 3.20 124 3.20 129 3.20 118 3.20
 126  0.500  0.833  0.459- 110 3.18 134 3.18 131 3.19 108 3.19 132 3.19 107 3.19 127 3.20 125 3.20
                           122 3.20 124 3.20 119 3.20 121 3.20
 127  0.667  0.667  0.459- 134 3.18 135 3.18 112 3.18 110 3.19 111 3.19 136 3.19 126 3.20 128 3.20
                           125 3.20 120 3.20 122 3.20 123 3.20
 128  0.833  0.500  0.459- 111 3.18 135 3.18 130 3.19 109 3.19 133 3.19 106 3.19 127 3.20 120 3.20
                           123 3.20 121 3.20 118 3.20 124 3.20
 129  0.167  0.167  0.458- 115 3.18 116 3.18 117 3.18 140 3.19 141 3.19 139 3.19 118 3.20 119 3.20
                           125 3.20 120 3.20 122 3.20 123 3.20
 130  0.000  0.500  0.500- 146 3.18 128 3.19 118 3.19 153 3.19 142 3.19 121 3.19 140 3.20 135 3.20
                           137 3.20 133 3.20 138 3.20 132 3.20
 131  0.500  0.000  0.500- 149 3.18 126 3.19 119 3.19 151 3.19 144 3.19 124 3.19 141 3.20 134 3.20
                           138 3.20 132 3.20 133 3.20 137 3.20
 132  0.333  0.667  0.500- 122 3.18 151 3.19 126 3.19 121 3.19 147 3.19 146 3.19 136 3.20 131 3.20
                           134 3.20 138 3.20 140 3.20 130 3.20
 133  0.667  0.333  0.500- 123 3.18 153 3.19 128 3.19 124 3.19 148 3.19 149 3.19 136 3.20 130 3.20
                           135 3.20 137 3.20 141 3.20 131 3.20
 134  0.667  0.833  0.500- 127 3.18 126 3.18 150 3.18 125 3.19 151 3.19 152 3.19 139 3.20 137 3.20
                           131 3.20 135 3.20 132 3.20 136 3.20
 135  0.833  0.667  0.500- 127 3.18 128 3.18 145 3.18 120 3.19 153 3.19 152 3.19 139 3.20 138 3.20
                           130 3.20 134 3.20 133 3.20 136 3.20
 136  0.500  0.500  0.500- 122 3.18 123 3.18 127 3.19 152 3.19 147 3.19 148 3.19 132 3.20 133 3.20
                           141 3.20 140 3.20 134 3.20 135 3.20
 137  0.833  0.167  0.500- 125 3.19 150 3.19 142 3.19 149 3.19 124 3.19 118 3.19 139 3.20 134 3.20
                           140 3.20 130 3.20 133 3.20 131 3.20
 138  0.167  0.833  0.500- 120 3.19 145 3.19 144 3.19 146 3.19 121 3.19 119 3.19 139 3.20 135 3.20
                           141 3.20 131 3.20 132 3.20 130 3.20
 139  1.000  1.000  0.500- 125 3.18 120 3.18 143 3.19 150 3.19 145 3.19 129 3.19 135 3.20 134 3.20
                           138 3.20 137 3.20 140 3.20 141 3.20
 140  0.167  0.333  0.500- 118 3.19 147 3.19 143 3.19 122 3.19 129 3.19 142 3.19 130 3.20 141 3.20
                           137 3.20 136 3.20 139 3.20 132 3.20
 141  0.333  0.167  0.500- 119 3.19 148 3.19 143 3.19 123 3.19 129 3.19 144 3.19 131 3.20 140 3.20
                           138 3.20 136 3.20 139 3.20 133 3.20
 142  1.000  0.333  0.542- 156 3.18 155 3.19 137 3.19 163 3.19 130 3.19 140 3.19 143 3.20 150 3.20
                           147 3.20 153 3.20 149 3.20 146 3.20
 143  0.167  0.167  0.542- 139 3.19 140 3.19 141 3.19 156 3.19 157 3.19 154 3.19 150 3.20 145 3.20
                           142 3.20 144 3.20 147 3.20 148 3.20
 144  0.333  1.000  0.542- 157 3.18 158 3.19 138 3.19 159 3.19 131 3.19 141 3.19 143 3.20 145 3.20
                           148 3.20 151 3.20 146 3.20 149 3.20
 145  0.000  0.833  0.542- 135 3.18 138 3.19 154 3.19 159 3.19 139 3.19 165 3.19 150 3.20 143 3.20
                           144 3.20 146 3.20 152 3.20 153 3.20
 146  0.167  0.667  0.542- 130 3.18 138 3.19 160 3.19 159 3.19 132 3.19 155 3.19 147 3.20 153 3.20
                           145 3.20 144 3.20 142 3.20 151 3.20
 147  0.333  0.500  0.542- 140 3.19 161 3.19 160 3.19 136 3.19 132 3.19 156 3.19 148 3.20 146 3.20
                           142 3.20 143 3.20 151 3.20 152 3.20
 148  0.500  0.333  0.542- 141 3.19 161 3.19 162 3.19 136 3.19 133 3.19 157 3.19 147 3.20 149 3.20
                           144 3.20 143 3.20 153 3.20 152 3.20
 149  0.667  0.167  0.542- 131 3.18 137 3.19 162 3.19 163 3.19 133 3.19 158 3.19 148 3.20 151 3.20
                           150 3.20 142 3.20 144 3.20 153 3.20
 150  0.833  0.000  0.542- 134 3.18 137 3.19 154 3.19 163 3.19 139 3.19 164 3.19 145 3.20 143 3.20
                           142 3.20 149 3.20 152 3.20 151 3.20
 151  0.500  0.833  0.542- 132 3.19 164 3.19 158 3.19 131 3.19 134 3.19 160 3.19 152 3.20 149 3.20
                           144 3.20 146 3.20 147 3.20 150 3.20
 152  0.667  0.667  0.542- 164 3.19 165 3.19 136 3.19 161 3.19 134 3.19 135 3.19 151 3.20 153 3.20
                           150 3.20 145 3.20 147 3.20 148 3.20
 153  0.833  0.500  0.542- 133 3.19 165 3.19 155 3.19 130 3.19 135 3.19 162 3.19 152 3.20 146 3.20
                           142 3.20 149 3.20 148 3.20 145 3.20
 154  0.000  0.000  0.583- 167 3.18 150 3.19 145 3.19 174 3.19 169 3.19 143 3.19 159 3.20 163 3.20
                           156 3.20 157 3.20 165 3.20 164 3.20
 155  0.000  0.500  0.583- 142 3.19 170 3.19 153 3.19 177 3.19 166 3.19 146 3.19 156 3.20 160 3.20
                           165 3.20 162 3.20 163 3.20 159 3.20
 156  0.167  0.333  0.583- 142 3.18 171 3.19 167 3.19 143 3.19 147 3.19 166 3.19 157 3.20 154 3.20
                           163 3.20 155 3.20 161 3.20 160 3.20
 157  0.333  0.167  0.583- 144 3.18 172 3.19 167 3.19 143 3.19 148 3.19 168 3.19 156 3.20 154 3.20
                           159 3.20 158 3.20 161 3.20 162 3.20
 158  0.500  0.000  0.583- 144 3.19 173 3.19 151 3.19 175 3.19 168 3.19 149 3.19 157 3.20 162 3.20
                           164 3.20 160 3.20 159 3.20 163 3.20
 159  0.167  0.833  0.583- 168 3.19 145 3.19 144 3.19 169 3.19 170 3.19 146 3.19 154 3.20 165 3.20
                           157 3.20 158 3.20 160 3.20 155 3.20
 160  0.333  0.667  0.583- 175 3.19 147 3.19 170 3.19 146 3.19 171 3.19 151 3.19 161 3.20 155 3.20
                           158 3.20 159 3.20 156 3.20 164 3.20
 161  0.500  0.500  0.583- 176 3.19 147 3.19 148 3.19 152 3.19 171 3.19 172 3.19 160 3.20 162 3.20
                           157 3.20 156 3.20 164 3.20 165 3.20
 162  0.667  0.333  0.583- 177 3.19 148 3.19 173 3.19 149 3.19 172 3.19 153 3.19 161 3.20 158 3.20
                           155 3.20 163 3.20 157 3.20 165 3.20
 163  0.833  0.167  0.583- 166 3.19 150 3.19 142 3.19 174 3.19 173 3.19 149 3.19 154 3.20 164 3.20
                           156 3.20 155 3.20 162 3.20 158 3.20
 164  0.667  0.833  0.583- 152 3.19 174 3.19 151 3.19 176 3.19 175 3.19 150 3.19 163 3.20 165 3.20
                           154 3.20 158 3.20 161 3.20 160 3.20
 165  0.833  0.667  0.583- 152 3.19 169 3.19 153 3.19 176 3.19 177 3.19 145 3.19 159 3.20 164 3.20
                           154 3.20 155 3.20 161 3.20 162 3.20
 166  0.000  0.333  0.625- 180 3.19 179 3.19 163 3.19 187 3.19 156 3.19 155 3.19 167 3.20 171 3.20
                           174 3.20 173 3.20 177 3.20 170 3.20
 167  0.167  0.167  0.625- 154 3.18 180 3.19 181 3.19 156 3.19 157 3.19 178 3.19 174 3.20 169 3.20
                           166 3.20 168 3.20 171 3.20 172 3.20
 168  0.333  0.000  0.625- 181 3.19 182 3.19 159 3.19 183 3.19 157 3.19 158 3.19 167 3.20 172 3.20
                           169 3.20 170 3.20 175 3.20 173 3.20
 169  0.000  0.834  0.625- 178 3.19 165 3.19 183 3.19 159 3.19 154 3.19 189 3.19 174 3.20 167 3.20
                           168 3.20 176 3.20 170 3.20 177 3.20
 170  0.167  0.667  0.625- 155 3.19 184 3.19 160 3.19 183 3.19 159 3.19 179 3.19 171 3.20 177 3.20
                           168 3.20 169 3.20 175 3.20 166 3.20
 171  0.333  0.500  0.625- 156 3.19 184 3.19 185 3.19 160 3.19 161 3.19 180 3.19 166 3.20 170 3.20
                           172 3.20 167 3.20 175 3.20 176 3.20
 172  0.500  0.333  0.625- 157 3.19 186 3.19 185 3.19 162 3.19 161 3.19 181 3.19 168 3.20 173 3.20
                           171 3.20 167 3.20 177 3.20 176 3.20
 173  0.667  0.167  0.625- 158 3.19 186 3.19 162 3.19 187 3.19 163 3.19 182 3.19 172 3.20 175 3.20
                           166 3.20 174 3.20 177 3.20 168 3.20
 174  0.834  0.000  0.625- 178 3.19 164 3.19 187 3.19 163 3.19 154 3.19 188 3.19 169 3.20 167 3.20
                           166 3.20 176 3.20 173 3.20 175 3.20
 175  0.500  0.833  0.625- 160 3.19 188 3.19 182 3.19 158 3.19 164 3.19 184 3.19 176 3.20 173 3.20
                           168 3.20 170 3.20 171 3.20 174 3.20
 176  0.667  0.667  0.625- 161 3.19 188 3.19 189 3.19 164 3.19 165 3.19 185 3.19 175 3.20 177 3.20
                           174 3.20 169 3.20 171 3.20 172 3.20
 177  0.833  0.500  0.625- 162 3.19 189 3.19 179 3.19 155 3.19 165 3.19 186 3.19 176 3.20 170 3.20
                           166 3.20 173 3.20 172 3.20 169 3.20
 178  0.000  0.000  0.667- 174 3.19 169 3.19 191 3.19 167 3.19 198 3.19 193 3.19 183 3.20 187 3.20
                           180 3.20 181 3.20 189 3.20 188 3.20
 179  0.000  0.500  0.667- 194 3.18 166 3.19 201 3.19 177 3.19 190 3.19 170 3.19 180 3.20 184 3.20
                           189 3.20 186 3.20 187 3.20 183 3.20
 180  0.167  0.333  0.667- 166 3.19 195 3.19 167 3.19 191 3.19 190 3.19 171 3.19 181 3.20 179 3.20
                           178 3.20 187 3.20 184 3.20 185 3.20
 181  0.333  0.167  0.667- 168 3.19 196 3.19 167 3.19 191 3.19 192 3.19 172 3.19 180 3.20 182 3.20
                           178 3.20 183 3.20 186 3.20 185 3.20
 182  0.500  0.000  0.667- 197 3.18 168 3.19 199 3.19 175 3.19 192 3.19 173 3.19 181 3.20 186 3.20
                           188 3.20 184 3.20 183 3.20 187 3.20
 183  0.167  0.833  0.667- 192 3.19 169 3.19 194 3.19 170 3.19 168 3.19 193 3.19 178 3.20 189 3.20
                           181 3.20 182 3.20 184 3.20 179 3.20
 184  0.333  0.667  0.667- 199 3.19 171 3.19 170 3.19 194 3.19 195 3.19 175 3.19 185 3.20 179 3.20
                           182 3.20 183 3.20 180 3.20 188 3.20
 185  0.500  0.500  0.667- 200 3.19 171 3.19 172 3.19 195 3.19 196 3.19 176 3.19 184 3.20 186 3.20
                           188 3.20 189 3.20 181 3.20 180 3.20
 186  0.667  0.333  0.667- 201 3.19 172 3.19 173 3.19 197 3.19 196 3.19 177 3.19 185 3.20 182 3.20
                           179 3.20 187 3.20 181 3.20 189 3.20
 187  0.833  0.167  0.667- 190 3.19 174 3.19 197 3.19 166 3.19 173 3.19 198 3.19 178 3.20 188 3.20
                           180 3.20 179 3.20 186 3.20 182 3.20
 188  0.667  0.833  0.667- 198 3.19 176 3.19 175 3.19 200 3.19 199 3.19 174 3.19 187 3.20 189 3.20
                           178 3.20 185 3.20 182 3.20 184 3.20
 189  0.833  0.667  0.667- 193 3.19 176 3.19 177 3.19 200 3.19 201 3.19 169 3.19 183 3.20 188 3.20
                           178 3.20 185 3.20 179 3.20 186 3.20
 190  0.000  0.333  0.708- 203 3.19 204 3.19 187 3.19 179 3.19 211 3.19 180 3.19 191 3.20 201 3.20
                           194 3.20 198 3.20 197 3.20 195 3.20
 191  0.167  0.167  0.708- 204 3.19 205 3.19 178 3.19 180 3.19 181 3.19 202 3.19 190 3.20 192 3.20
                           198 3.20 193 3.20 195 3.20 196 3.20
 192  0.333  0.000  0.708- 206 3.19 205 3.19 183 3.19 182 3.19 207 3.19 181 3.19 191 3.20 199 3.20
                           197 3.20 193 3.20 194 3.20 196 3.20
 193  1.000  0.833  0.708- 207 3.18 189 3.19 202 3.19 213 3.19 183 3.19 178 3.19 198 3.20 191 3.20
                           200 3.20 194 3.20 192 3.20 201 3.20
 194  0.167  0.667  0.708- 179 3.18 208 3.19 207 3.19 184 3.19 183 3.19 203 3.19 195 3.20 199 3.20
                           190 3.20 193 3.20 201 3.20 192 3.20
 195  0.333  0.500  0.708- 180 3.19 209 3.19 208 3.19 184 3.19 185 3.19 204 3.19 194 3.20 199 3.20
                           196 3.20 200 3.20 190 3.20 191 3.20
 196  0.500  0.333  0.708- 181 3.19 209 3.19 210 3.19 186 3.19 185 3.19 205 3.19 197 3.20 201 3.20
                           195 3.20 200 3.20 192 3.20 191 3.20
 197  0.667  0.167  0.708- 182 3.18 210 3.19 211 3.19 186 3.19 187 3.19 206 3.19 196 3.20 201 3.20
                           192 3.20 198 3.20 199 3.20 190 3.20
 198  0.833  1.000  0.708- 211 3.18 188 3.19 202 3.19 212 3.19 187 3.19 178 3.19 193 3.20 191 3.20
                           200 3.20 197 3.20 190 3.20 199 3.20
 199  0.500  0.833  0.708- 184 3.19 206 3.19 212 3.19 182 3.19 188 3.19 208 3.19 192 3.20 195 3.20
                           200 3.20 194 3.20 197 3.20 198 3.20
 200  0.667  0.667  0.708- 185 3.19 212 3.19 213 3.19 188 3.19 189 3.19 209 3.19 199 3.20 201 3.20
                           195 3.20 196 3.20 198 3.20 193 3.20
 201  0.833  0.500  0.708- 186 3.19 203 3.19 213 3.19 179 3.19 189 3.19 210 3.19 190 3.20 196 3.20
                           200 3.20 197 3.20 194 3.20 193 3.20
 202  0.000  0.000  0.750- 215 3.18 222 3.18 217 3.18 198 3.19 193 3.19 191 3.19 207 3.20 211 3.20
                           213 3.20 212 3.20 204 3.20 205 3.20
 203  1.000  0.500  0.750- 218 3.18 190 3.19 225 3.19 201 3.19 214 3.19 194 3.19 213 3.20 204 3.20
                           210 3.20 211 3.20 207 3.20 208 3.20
 204  0.167  0.333  0.750- 219 3.18 215 3.18 191 3.19 190 3.19 214 3.19 195 3.19 205 3.20 203 3.20
                           209 3.20 208 3.20 202 3.20 211 3.20
 205  0.333  0.167  0.750- 220 3.18 215 3.18 191 3.19 192 3.19 216 3.19 196 3.19 204 3.20 206 3.20
                           209 3.20 210 3.20 202 3.20 207 3.20
 206  0.500  1.000  0.750- 221 3.18 192 3.19 223 3.19 199 3.19 216 3.19 197 3.19 212 3.20 205 3.20
                           208 3.20 207 3.20 211 3.20 210 3.20
 207  0.167  0.833  0.750- 216 3.18 193 3.18 217 3.18 218 3.19 194 3.19 192 3.19 202 3.20 213 3.20
                           208 3.20 206 3.20 203 3.20 205 3.20
 208  0.333  0.667  0.750- 223 3.18 218 3.18 219 3.19 195 3.19 194 3.19 199 3.19 209 3.20 206 3.20
                           207 3.20 204 3.20 212 3.20 203 3.20
 209  0.500  0.500  0.750- 224 3.18 195 3.19 196 3.19 219 3.19 220 3.19 200 3.19 208 3.20 210 3.20
                           205 3.20 204 3.20 212 3.20 213 3.20
 210  0.667  0.333  0.750- 225 3.18 221 3.18 220 3.19 196 3.19 197 3.19 201 3.19 209 3.20 203 3.20
                           211 3.20 205 3.20 213 3.20 206 3.20
 211  0.833  0.167  0.750- 214 3.18 198 3.18 222 3.18 221 3.19 197 3.19 190 3.19 202 3.20 212 3.20
                           210 3.20 203 3.20 206 3.20 204 3.20
 212  0.667  0.833  0.750- 222 3.18 223 3.19 200 3.19 199 3.19 224 3.19 198 3.19 206 3.20 211 3.20
                           213 3.20 202 3.20 208 3.20 209 3.20
 213  0.833  0.667  0.750- 217 3.18 225 3.19 200 3.19 201 3.19 224 3.19 193 3.19 203 3.20 207 3.20
                           212 3.20 202 3.20 210 3.20 209 3.20
 214  1.000  0.333  0.791- 228 3.18 235 3.18 227 3.18 211 3.18 203 3.19 204 3.19 225 3.20 218 3.20
                           215 3.20 219 3.20 222 3.20 221 3.20
 215  0.167  0.167  0.791- 202 3.18 228 3.18 229 3.18 226 3.18 204 3.18 205 3.18 214 3.20 216 3.20
                           219 3.20 220 3.20 222 3.20 217 3.20
 216  0.333  1.000  0.791- 229 3.18 231 3.18 230 3.18 207 3.18 206 3.19 205 3.19 223 3.20 221 3.20
                           215 3.20 220 3.20 217 3.20 218 3.20
 217  1.000  0.833  0.791- 231 3.18 226 3.18 213 3.18 237 3.18 202 3.18 207 3.18 218 3.20 225 3.20
                           224 3.20 216 3.20 222 3.20 215 3.20
 218  0.167  0.667  0.791- 231 3.18 203 3.18 232 3.18 227 3.18 208 3.18 207 3.19 219 3.20 217 3.20
                           223 3.20 214 3.20 225 3.20 216 3.20
 219  0.333  0.500  0.791- 233 3.18 228 3.18 232 3.18 204 3.18 208 3.19 209 3.19 218 3.20 223 3.20
                           224 3.20 215 3.20 220 3.20 214 3.20
 220  0.500  0.333  0.791- 233 3.18 229 3.18 234 3.18 205 3.18 210 3.19 209 3.19 221 3.20 225 3.20
                           224 3.20 215 3.20 219 3.20 216 3.20
 221  0.667  0.167  0.791- 235 3.18 206 3.18 234 3.18 230 3.18 210 3.18 211 3.19 220 3.20 222 3.20
                           225 3.20 216 3.20 223 3.20 214 3.20
 222  0.833  1.000  0.791- 235 3.18 226 3.18 212 3.18 236 3.18 202 3.18 211 3.18 221 3.20 223 3.20
                           224 3.20 214 3.20 217 3.20 215 3.20
 223  0.500  0.833  0.791- 236 3.18 230 3.18 208 3.18 232 3.19 206 3.19 212 3.19 216 3.20 218 3.20
                           219 3.20 222 3.20 224 3.20 221 3.20
 224  0.667  0.667  0.791- 236 3.18 237 3.18 233 3.18 209 3.18 212 3.19 213 3.19 219 3.20 220 3.20
                           223 3.20 225 3.20 222 3.20 217 3.20
 225  0.833  0.500  0.791- 237 3.18 227 3.18 210 3.18 234 3.19 203 3.19 213 3.19 214 3.20 221 3.20
                           220 3.20 217 3.20 224 3.20 218 3.20
 226  1.000  1.000  0.833- 239 3.17 246 3.18 241 3.18 222 3.18 217 3.18 215 3.18 231 3.20 235 3.20
                           237 3.20 236 3.20 228 3.20 229 3.20
 227  1.000  0.500  0.833- 238 3.18 242 3.18 225 3.18 214 3.18 249 3.18 218 3.18 237 3.20 228 3.20
                           235 3.20 231 3.20 234 3.20 232 3.20
 228  0.167  0.334  0.833- 239 3.18 214 3.18 238 3.18 215 3.18 219 3.18 243 3.18 232 3.20 227 3.20
                           233 3.20 235 3.20 226 3.20 229 3.20
 229  0.334  0.167  0.833- 239 3.18 216 3.18 240 3.18 215 3.18 220 3.18 244 3.18 234 3.20 230 3.20
                           233 3.20 231 3.20 226 3.20 228 3.20
 230  0.500  1.000  0.833- 240 3.18 245 3.18 223 3.18 216 3.18 247 3.18 221 3.18 236 3.20 229 3.20
                           231 3.20 235 3.20 232 3.20 234 3.20
 231  0.167  0.833  0.833- 241 3.18 240 3.18 218 3.18 217 3.18 216 3.18 242 3.18 232 3.20 230 3.20
                           227 3.20 229 3.20 226 3.20 237 3.20
 232  0.333  0.667  0.833- 247 3.18 242 3.18 243 3.18 219 3.18 218 3.18 223 3.19 231 3.20 228 3.20
                           236 3.20 233 3.20 230 3.20 227 3.20
 233  0.500  0.500  0.833- 248 3.18 219 3.18 220 3.18 243 3.18 244 3.18 224 3.18 228 3.20 229 3.20
                           232 3.20 234 3.20 236 3.20 237 3.20
 234  0.667  0.333  0.833- 249 3.18 245 3.18 244 3.18 220 3.18 221 3.18 225 3.19 235 3.20 229 3.20
                           237 3.20 233 3.20 227 3.20 230 3.20
 235  0.833  0.167  0.833- 246 3.18 238 3.18 221 3.18 222 3.18 214 3.18 245 3.18 234 3.20 227 3.20
                           230 3.20 228 3.20 226 3.20 236 3.20
 236  0.666  0.833  0.833- 246 3.17 224 3.18 223 3.18 248 3.18 247 3.18 222 3.18 230 3.20 232 3.20
                           233 3.20 237 3.20 226 3.20 235 3.20
 237  0.833  0.666  0.833- 241 3.17 224 3.18 225 3.18 248 3.18 249 3.18 217 3.18 227 3.20 234 3.20
                           233 3.20 236 3.20 226 3.20 231 3.20
 238  1.000  0.333  0.874- 252 3.17 259 3.18 227 3.18 235 3.18 228 3.18 251 3.18 249 3.20 242 3.20
                           245 3.20 239 3.20 243 3.20 246 3.20
 239  0.167  0.167  0.874- 250 3.17 226 3.17 228 3.18 229 3.18 252 3.18 253 3.18 243 3.20 244 3.20
                           238 3.20 240 3.20 246 3.20 241 3.20
 240  0.333  1.000  0.874- 253 3.17 255 3.18 230 3.18 231 3.18 229 3.18 254 3.18 247 3.20 245 3.20
                           242 3.20 239 3.20 244 3.20 241 3.20
 241  1.000  0.833  0.874- 250 3.17 237 3.17 226 3.18 231 3.18 255 3.18 261 3.18 242 3.20 249 3.20
                           246 3.20 248 3.20 239 3.20 240 3.20
 242  0.167  0.667  0.874- 255 3.17 256 3.17 251 3.18 227 3.18 232 3.18 231 3.18 238 3.20 241 3.20
                           249 3.20 243 3.20 240 3.20 247 3.20
 243  0.333  0.500  0.874- 252 3.17 256 3.17 257 3.18 232 3.18 233 3.18 228 3.18 244 3.20 248 3.20
                           239 3.20 242 3.20 247 3.20 238 3.20
 244  0.500  0.333  0.874- 253 3.17 258 3.17 257 3.18 234 3.18 233 3.18 229 3.18 243 3.20 248 3.20
                           239 3.20 245 3.20 249 3.20 240 3.20
 245  0.667  0.167  0.874- 259 3.17 258 3.17 254 3.18 230 3.18 234 3.18 235 3.18 240 3.20 246 3.20
                           247 3.20 244 3.20 238 3.20 249 3.20
 246  0.833  1.000  0.874- 250 3.17 236 3.17 226 3.18 235 3.18 259 3.18 260 3.18 245 3.20 247 3.20
                           241 3.20 248 3.20 239 3.20 238 3.20
 247  0.500  0.833  0.874- 260 3.17 254 3.17 256 3.18 232 3.18 230 3.18 236 3.18 240 3.20 245 3.20
                           246 3.20 248 3.20 243 3.20 242 3.20
 248  0.667  0.667  0.874- 260 3.17 261 3.17 233 3.18 236 3.18 237 3.18 257 3.18 243 3.20 244 3.20
                           247 3.20 249 3.20 246 3.20 241 3.20
 249  0.833  0.500  0.874- 261 3.17 251 3.17 258 3.18 234 3.18 227 3.18 237 3.18 238 3.20 242 3.20
                           241 3.20 248 3.20 244 3.20 245 3.20
 250  0.000  0.000  0.915- 246 3.17 241 3.17 239 3.17 263 3.18 270 3.18 265 3.18 255 3.20 259 3.20
                           261 3.20 260 3.20 252 3.20 253 3.20
 251  0.000  0.500  0.916- 249 3.17 242 3.18 238 3.18 266 3.18 273 3.19 262 3.19 261 3.20 255 3.20
                           252 3.20 258 3.20 256 3.20 259 3.20
 252  0.167  0.334  0.916- 243 3.17 238 3.17 263 3.18 239 3.18 267 3.18 262 3.20 256 3.20 257 3.20
                           251 3.20 259 3.20 250 3.20 253 3.20
 253  0.334  0.167  0.916- 244 3.17 240 3.17 263 3.18 239 3.18 268 3.18 264 3.20 258 3.20 257 3.20
                           254 3.20 255 3.20 250 3.20 252 3.20
 254  0.500  0.000  0.916- 247 3.17 245 3.18 240 3.18 269 3.18 271 3.19 264 3.19 260 3.20 259 3.20
                           253 3.20 256 3.20 258 3.20 255 3.20
 255  0.167  0.833  0.916- 242 3.17 240 3.18 241 3.18 265 3.18 266 3.18 264 3.19 256 3.20 251 3.20
                           253 3.20 250 3.20 254 3.20 261 3.21
 256  0.333  0.667  0.916- 242 3.17 243 3.17 247 3.18 271 3.18 267 3.18 266 3.18 255 3.20 260 3.20
                           252 3.20 254 3.20 251 3.20 257 3.20
 257  0.500  0.500  0.916- 243 3.18 244 3.18 248 3.18 267 3.18 268 3.18 272 3.19 260 3.20 261 3.20
                           252 3.20 253 3.20 256 3.20 258 3.20
 258  0.667  0.333  0.916- 245 3.17 244 3.17 249 3.18 273 3.18 268 3.18 269 3.18 259 3.20 261 3.20
                           253 3.20 251 3.20 254 3.20 257 3.20
 259  0.833  0.167  0.916- 245 3.17 238 3.18 246 3.18 270 3.18 269 3.18 262 3.19 258 3.20 254 3.20
                           252 3.20 250 3.20 251 3.20 260 3.21
 260  0.667  0.833  0.916- 247 3.17 248 3.17 270 3.17 271 3.18 246 3.18 261 3.20 254 3.20 256 3.20
                           257 3.20 272 3.20 250 3.20 259 3.21
 261  0.833  0.667  0.916- 249 3.17 248 3.17 265 3.17 273 3.18 241 3.18 260 3.20 251 3.20 258 3.20
                           257 3.20 272 3.20 250 3.20 255 3.21
 262  0.000  0.334  0.957-   4 3.18  11 3.19 251 3.19 269 3.19 267 3.19 259 3.19 252 3.20 263 3.20
                           270 3.20 273 3.21 266 3.21   1 3.21
 263  0.166  0.166  0.957-   5 3.17 252 3.18 253 3.18 250 3.18 270 3.19 265 3.19 262 3.20 264 3.20
                           267 3.20 268 3.20   1 3.22   2 3.22
 264  0.334  0.000  0.957-   6 3.18   8 3.19 254 3.19 266 3.19 268 3.19 255 3.19 253 3.20 263 3.20
                           265 3.20 271 3.21 269 3.21   2 3.21
 265  1.000  0.834  0.957- 261 3.17   3 3.18 255 3.18 250 3.18 270 3.19 263 3.19 266 3.20 272 3.20
                           273 3.20 264 3.20   2 3.21  12 3.22
 266  0.167  0.668  0.957-   3 3.18 255 3.18 251 3.18   4 3.18 256 3.18 264 3.19 265 3.20 267 3.20
                           271 3.20   8 3.20 262 3.21 273 3.21
 267  0.333  0.500  0.957-   5 3.17 252 3.18 256 3.18 257 3.18   9 3.19 262 3.19 271 3.20 266 3.20
                           263 3.20   4 3.21 272 3.21 268 3.21
 268  0.500  0.333  0.957-   5 3.17 253 3.18 258 3.18 257 3.18  10 3.19 264 3.19 273 3.20 269 3.20
                           263 3.20   6 3.21 272 3.21 267 3.21
 269  0.668  0.167  0.957-   7 3.18 259 3.18 254 3.18   6 3.18 258 3.18 262 3.19 270 3.20 268 3.20
                           273 3.20  11 3.20 264 3.21 271 3.21
 270  0.834  1.000  0.957- 260 3.17   7 3.18 259 3.18 250 3.18 265 3.19 263 3.19 269 3.20 272 3.20
                           271 3.20 262 3.20   1 3.21  12 3.22
 271  0.500  0.833  0.957-   7 3.17 256 3.18 260 3.18   8 3.18 254 3.19 272 3.19 267 3.20 266 3.20
                           270 3.20 264 3.21 269 3.21   9 3.21
 272  0.667  0.667  0.958-   9 3.19  10 3.19 271 3.19 273 3.19 257 3.19 260 3.20 261 3.20 270 3.20
                           265 3.20 267 3.21 268 3.21  12 3.21
 273  0.833  0.500  0.957-   3 3.17 258 3.18 261 3.18  11 3.18 251 3.19 272 3.19 268 3.20 269 3.20
                           265 3.20 262 3.21 266 3.21  10 3.21
 274  1.000  0.231  0.074-  21 2.74  14 2.74  24 2.77  29 2.77 283 3.01 282 3.02 280 3.02 284 3.04

 275  0.231  1.000  0.074-  17 2.74  15 2.74  25 2.77  26 2.77 281 3.01 282 3.02 280 3.02 285 3.04

 276  0.772  0.772  0.075-  23 2.75  22 2.75  28 2.77  27 2.77 281 3.01 283 3.01 280 3.02 286 3.06

 277  0.231  0.231  0.134-  37 2.73  38 2.73  31 2.77  32 2.77 284 3.01 285 3.01 287 3.05 282 3.07

 278  0.002  0.771  0.134-  46 2.71  40 2.76  30 2.76  35 2.77 285 3.00 286 3.02 287 3.03 281 3.04

 279  0.771  0.002  0.134-  45 2.71  44 2.76  33 2.76  34 2.77 284 3.00 286 3.02 287 3.03 283 3.04

 280  0.000  0.000  0.048- 276 3.02 275 3.02 274 3.02  23 3.33  22 3.33  14 3.33  15 3.33  17 3.33
                            21 3.33  12 3.55   2 3.56   1 3.56 282 3.95 281 3.96 283 3.96
 281  0.001  0.714  0.086- 276 3.01 275 3.01 278 3.04  30 3.32  23 3.34  35 3.34  17 3.34  26 3.39
                            28 3.39  29 3.52  24 3.53  13 3.65 285 3.87 286 3.92 280 3.96
 282  0.286  0.286  0.086- 275 3.02 274 3.02 277 3.07  32 3.32  31 3.32  15 3.35  14 3.35  25 3.38
                            24 3.38  28 3.54  27 3.54  19 3.64 285 3.87 284 3.87 280 3.95
 283  0.714  0.001  0.086- 276 3.01 274 3.01 279 3.04  33 3.32  22 3.34  34 3.34  21 3.34  29 3.39
                            27 3.39  26 3.52  25 3.53  16 3.65 284 3.87 286 3.92 280 3.96
 284  0.001  0.287  0.122- 279 3.00 277 3.01 274 3.04  29 3.32  24 3.32  37 3.35  44 3.36  31 3.38
                            33 3.39  35 3.53  30 3.54  36 3.67 282 3.87 283 3.87 287 3.99
 285  0.287  0.001  0.122- 278 3.00 277 3.01 275 3.04  26 3.32  25 3.32  38 3.35  40 3.36  32 3.38
                            30 3.39  34 3.53  33 3.54  39 3.67 282 3.87 281 3.87 287 3.99
 286  0.714  0.714  0.123- 279 3.02 278 3.02 276 3.06  45 3.33  46 3.33  27 3.34  28 3.34  34 3.39
                            35 3.39  31 3.54  32 3.54  42 3.63 283 3.92 281 3.92 287 3.93
 287  0.998  0.998  0.160- 279 3.03 278 3.03 277 3.05  46 3.29  45 3.29  37 3.30  38 3.30  40 3.36
                            44 3.36  56 3.53  54 3.55  49 3.55 286 3.93 284 3.99 285 3.99
 288  0.663  0.663  0.209-  45 3.19  46 3.19  51 3.22  52 3.22  67 3.24  62 3.25  63 3.25  54 3.25
                            49 3.25  42 3.26  55 3.26  57 3.26
 
  Warning from LATTYP: Got some problem with cell dimensions!
  Tried to take original basis but could not verify dimensions!
  LATTYP: Found a base centered monoclinic cell.
 ALAT       =    11.0878963620
 B/A-ratio  =     1.7314254319
 C/A-ratio  =     5.9708693432
 COS(beta)  =    -0.1670216871
  
  Lattice vectors:
  
 A1 = (  -5.5409460244,   9.6006657111,  -0.0029673277)
 A2 = (  11.0848934112,   0.0017328375,  -0.0029673277)
 A3 = ( -11.0712718906, -19.1760054190, -62.3917282023)
 Subroutine PRICEL returns:
 Original cell was already a primitive cell.
 

Analysis of symmetry for initial positions (statically):

 Routine SETGRP: Setting up the symmetry group for a 
 base centered monoclinic supercell.


 Subroutine GETGRP returns: Found  2 space group operations
 (whereof  2 operations were pure point group operations)
 out of a pool of  4 trial point group operations.


The static configuration has the point symmetry C_1h.

Analysis of symmetry for dynamics (positions and initial velocities):

 Subroutine DYNSYM returns: Found  2 space group operations
 (whereof  2 operations were pure point group operations)
 out of a pool of  2 trial space group operations
 (whereof  2 operations were pure point group operations)
 and found also     1 'primitive' translations


The dynamic configuration has the point symmetry C_1h.
 
 
 KPOINTS: Automatic mesh                          

Automatic generation of k-mesh.
 generate k-points for:   5   5   1
 
 Subroutine IBZKPT returns following result:
 ===========================================
 
 Found      9 irreducible k-points:
 
 Following reciprocal coordinates:
            Coordinates               Weight
  0.000000  0.000000  0.000000      1.000000
  0.200000 -0.000000 -0.000000      4.000000
  0.400000 -0.000000 -0.000000      4.000000
  0.200000  0.200000 -0.000000      2.000000
  0.400000  0.200000 -0.000000      4.000000
 -0.400000  0.200000  0.000000      4.000000
 -0.200000  0.200000  0.000000      2.000000
  0.400000  0.400000 -0.000000      2.000000
 -0.400000  0.400000 -0.000000      2.000000
 
 Following cartesian coordinates:
            Coordinates               Weight
  0.000000  0.000000  0.000000      1.000000
  0.018041  0.010412  0.000010      4.000000
  0.036082  0.020824  0.000019      4.000000
  0.018038  0.031242  0.000019      2.000000
  0.036079  0.041654  0.000029      4.000000
 -0.036085  0.000006 -0.000010      4.000000
 -0.018044  0.010418  0.000000      2.000000
  0.036075  0.062484  0.000038      2.000000
 -0.036088  0.020836 -0.000000      2.000000
 
 TETIRR: Found     39 inequivalent tetrahedra from      150


--------------------------------------------------------------------------------------------------------




 Dimension of arrays:
   k-Points           NKPTS =      9   number of bands    NBANDS=    504
   number of dos      NEDOS =    301   number of ions     NIONS =    288
   non local maximal  LDIM  =      6   non local SUM 2l+1 LMDIM =     18
   total plane-waves  NPLWV = ******
   max r-space proj   IRMAX =   7058   max aug-charges    IRDMAX= 105861
   dimension x,y,z NGX =    64 NGY =   64 NGZ =  360
   dimension x,y,z NGXF=   128 NGYF=  128 NGZF=  720
   support grid    NGXF=   256 NGYF=  256 NGZF= 1440
   ions per type =             273   6   9
 NGX,Y,Z   is equivalent  to a cutoff of   9.60,  9.60,  9.59 a.u.
 NGXF,Y,Z  is equivalent  to a cutoff of  19.20, 19.20, 19.18 a.u.


 I would recommend the setting:
   dimension x,y,z NGX =    63 NGY =   63 NGZ =  353
 SYSTEM =  Gd unit fixed hcp k-0.5 cut-300 yosuke  
 POSCAR =  New structure                           

 Startparameter for this run:
   NWRITE =      2    write-flag & timer
   PREC   = accura    medium, high low
   ISTART =      0    job   : 0-new  1-cont  2-samecut
   ICHARG =      2    charge: 1-file 2-atom 10-const
   ISPIN  =      1    spin polarized calculation?
   LNONCOLLINEAR =      F non collinear calculations
   LSORBIT =      F    spin-orbit coupling
   INIWAV =      1    electr: 0-lowe 1-rand  2-diag
   LASPH  =      F    aspherical Exc in radial PAW
   METAGGA=      F    non-selfconsistent MetaGGA calc.

 Electronic Relaxation 1
   ENCUT  =  300.0 eV  22.05 Ry    4.70 a.u.  15.65 15.65 88.13*2*pi/ulx,y,z
   ENINI  =  300.0     initial cutoff
   ENAUG  =  575.9 eV  augmentation charge cutoff
   NELM   =     60;   NELMIN= 12; NELMDL=-12     # of ELM steps 
   EDIFF  = 0.1E-04   stopping-criterion for ELM
   LREAL  =      T    real-space projection
   LCOMPAT=      F    compatible to vasp.4.4
   LREAL_COMPAT= F    compatible to vasp.4.5.1-3
   GGA_COMPAT  = T    GGA compatible to vasp.4.4-vasp.4.6
   LMAXPAW     = -100 max onsite density
   LMAXMIX     =    2 max onsite mixed and CHGCAR
   VOSKOWN=      1    Vosko Wilk Nusair interpolation
   ROPT   =   -0.00025  -0.00025  -0.00025
 Ionic relaxation
   EDIFFG = -.2E-01   stopping-criterion for IOM
   NSW    =      0    number of steps for IOM
   NBLOCK =      1;   KBLOCK =      1    inner block; outer block 
   IBRION =     -1    ionic relax: 0-MD 1-quasi-New 2-CG
   NFREE  =      0    steps in history (QN), initial steepest desc. (CG)
   ISIF   =      2    stress and relaxation
   IWAVPR =     10    prediction:  0-non 1-charg 2-wave 3-comb
   ISYM   =      2    0-nonsym 1-usesym 2-fastsym
   LCORR  =      T    Harris-Foulkes like correction to forces

   POTIM  =   0.50    time-step for ionic-motion
   TEIN   =    0.0    initial temperature
   TEBEG  =    0.0;   TEEND  =   0.0 temperature during run
   SMASS  =  -3.00    Nose mass-parameter (am)
   estimated Nose-frequenzy (Omega)   =  0.10E-29 period in steps =****** mass=  -0.281E-26a.u.
   NPACO  =    256;   APACO  = 16.0  distance and # of slots for P.C.
   PSTRESS=    0.0 pullay stress

  Mass of Ions in am
   POMASS =  24.30 65.39 88.91
  Ionic Valenz
   ZVAL   =   2.00 12.00 11.00
  Atomic Wigner-Seitz radii
   RWIGS  =  -1.00 -1.00 -1.00
   NELECT =     717.0000    total number of electrons
   NUPDOWN=      -1.0000    fix difference up-down

 DOS related values:
   EMIN   =  10.00;   EMAX   =-10.00  energy-range for DOS
   ISMEAR =    -5;   SIGMA  =   0.20  broadening in eV -4-tet -1-fermi 0-gaus

 Electronic relaxation 2 (details)
   IALGO  =     48    algorithm
   LDIAG  =      T    sub-space diagonalisation
   IMIX   =      4    mixing-type and parameters
     AMIX     =   0.40;   BMIX     =  1.00
     AMIX_MAG =   1.60;   BMIX_MAG =  1.00
     AMIN     =   0.10
     WC   =   100.;   INIMIX=   1;  MIXPRE=   1

 Intra band minimization:
   WEIMIN = 0.0000     energy-eigenvalue tresh-hold
   EBREAK =  0.50E-08  absolut break condition
   DEPER  =   0.30     relativ break condition  

   TIME   =   0.10     timestep for ELM

  volume/ion in A,a.u.               =      23.06       155.63
  Fermi-wavevector in a.u.,eV,Ry     =   0.779508  8.267350  0.607633

 Second variation
   LSECVAR=     F    do a second variation
 
 Write flags
   LWAVE  =      F    write WAVECAR
   LCHARG =      T    write CHGCAR
   LVTOT  =      F    write LOCPOT, local potential
   LELF   =      F    write electronic localiz. function (ELF)
   LORBIT =      0    0 simple, 1 ext, 2 COOP (PROOUT)


 Dipole corrections
   IDIPOL =      0    1-x, 2-y, 3-z
   LDIPOL =      F    correct potential



--------------------------------------------------------------------------------------------------------


 Static calculation
 charge density will be updated during run
 non-spin polarized calculation
 RMM-DIIS sequential band-by-band
 performe sub-space diagonalisation
    before iterative eigenvector-optimisation
 modified Broyden-mixing scheme, WC =      100.0
 initial mixing is a Kerker type mixing with AMIX =  0.4000 and BMIX =      1.0000
 Hartree-type preconditioning will be used
 using additional bands          145
 real space projection scheme for non local part
 use partial core corrections
 calculate Harris-corrections to forces 
   (improved forces if not selfconsistent)
 use gradient corrections 
 use of overlap-Matrix (Vanderbilt PP)
 Fermi weights with tetrahedron method with Bloechl corrections


--------------------------------------------------------------------------------------------------------


  energy-cutoff  :      300.00
  volume of cell :     6641.74
      direct lattice vectors                 reciprocal lattice vectors
    11.084893411  0.001732838 -0.002967328     0.090204740  0.052060946  0.000048048
    -5.540946024  9.600665711 -0.002967328    -0.000016268  0.104150069  0.000048048
    -0.016622883 -0.028791678 62.403597513     0.000004289  0.000007428  0.016024722

  length of vectors
    11.084893944 11.084893944 62.403606369     0.104150082  0.104150082  0.016024724


 
 k-points in units of 2pi/SCALE and weight: Automatic mesh                          
   0.00000000  0.00000000  0.00000000       0.040
   0.01804095  0.01041219  0.00000961       0.160
   0.03608190  0.02082438  0.00001922       0.160
   0.01803769  0.03124220  0.00001922       0.080
   0.03607864  0.04165439  0.00002883       0.160
  -0.03608515  0.00000564 -0.00000961       0.160
  -0.01804420  0.01041782  0.00000000       0.080
   0.03607539  0.06248441  0.00003844       0.080
  -0.03608840  0.02083565 -0.00000000       0.080
 
 k-points in reciprocal lattice and weights: Automatic mesh                          
   0.00000000  0.00000000  0.00000000       0.040
   0.20000000 -0.00000000 -0.00000000       0.160
   0.40000000 -0.00000000 -0.00000000       0.160
   0.20000000  0.20000000 -0.00000000       0.080
   0.40000000  0.20000000 -0.00000000       0.160
  -0.40000000  0.20000000  0.00000000       0.160
  -0.20000000  0.20000000  0.00000000       0.080
   0.40000000  0.40000000 -0.00000000       0.080
  -0.40000000  0.40000000 -0.00000000       0.080
 
 position of ions in fractional coordinates (direct lattice) 
   0.99993837  0.16505234  0.99934604
   0.16505201  0.99993837  0.99934604
   0.99960247  0.66795114  0.99853695
   0.16526518  0.50219592  0.99901192
   0.33196144  0.33196108  0.99845964
   0.50219592  0.16526550  0.99901192
   0.66795085  0.99960247  0.99853695
   0.33660725  0.83469109  0.99901407
   0.49802881  0.66327009  0.99913916
   0.66326979  0.49802881  0.99913916
   0.83469109  0.33660725  0.99901407
   0.83489364  0.83489364  0.99952264
   0.99985033  0.50089066  0.04141838
   0.17334028  0.34175332  0.03945138
   0.34175368  0.17334028  0.03945138
   0.50089066  0.99985033  0.04141838
   0.16810326  0.82603846  0.03947036
   0.33361263  0.66670360  0.04109953
   0.49830489  0.49830489  0.04152019
   0.66670330  0.33361227  0.04109953
   0.82603875  0.16810359  0.03947036
   0.65833333  0.83131347  0.03977634
   0.83131376  0.65833363  0.03977634
   0.16670806  0.51291299  0.08268846
   0.51291299  0.16670839  0.08268846
   0.34809736  0.83483907  0.08279155
   0.48892571  0.65365755  0.08285721
   0.65365725  0.48892571  0.08285721
   0.83483907  0.34809736  0.08279155
   0.16672915  0.65386799  0.12549021
   0.34636428  0.51244575  0.12539454
   0.51244575  0.34636392  0.12539454
   0.65386769  0.16672947  0.12549021
   0.48825525  0.83581549  0.12577538
   0.83581579  0.48825525  0.12577538
   0.00521607  0.50053288  0.16691900
   0.16441582  0.33773739  0.16878819
   0.33773775  0.16441582  0.16878819
   0.50053288  0.00521607  0.16691900
   0.17738811  0.83126389  0.16854527
   0.33836095  0.66612722  0.16798556
   0.49726341  0.49726341  0.16627722
   0.66612692  0.33836059  0.16798556
   0.83126419  0.17738844  0.16854527
   0.65973566  0.83361574  0.16839114
   0.83361604  0.65973596  0.16839114
   0.99873470  0.33138229  0.20992963
   0.33138264  0.99873470  0.20992963
   0.00229924  0.83348237  0.20876404
   0.16678094  0.66330401  0.20954256
   0.32769291  0.49368172  0.20987883
   0.49368172  0.32769255  0.20987883
   0.66330372  0.16678126  0.20954256
   0.83348266  0.00229924  0.20876404
   0.49893429  0.83868144  0.20958097
   0.16131074  0.16131106  0.20896267
   0.83868174  0.49893429  0.20958097
   0.00347062  0.49985062  0.25130942
   0.49985062  0.00347062  0.25130942
   0.33888595  0.66656004  0.25051877
   0.66655974  0.33888559  0.25051877
   0.66710379  0.83639144  0.25157540
   0.83639174  0.66710409  0.25157540
   0.99376665  0.99376665  0.25076946
   0.16223987  0.32759072  0.25130759
   0.32759108  0.16223987  0.25130759
   0.49639505  0.49639505  0.25189995
   0.83216746  0.16840228  0.25113214
   0.16840195  0.83216716  0.25113214
   0.99961826  0.33270152  0.29269030
   0.33270187  0.99961826  0.29269030
   0.00045060  0.83329397  0.29260877
   0.16741717  0.66650280  0.29245511
   0.33240748  0.49928414  0.29251554
   0.49928414  0.33240713  0.29251554
   0.66650250  0.16741750  0.29245511
   0.83329427  0.00045060  0.29260877
   0.49972163  0.83369551  0.29247020
   0.66695867  0.66695897  0.29284476
   0.83369581  0.49972163  0.29247020
   0.16516508  0.16516541  0.29265211
   0.00030079  0.50031234  0.33386624
   0.50031234  0.00030079  0.33386624
   0.33386720  0.66674484  0.33391959
   0.66674454  0.33386684  0.33391959
   0.66655183  0.83309718  0.33409285
   0.83309747  0.66655213  0.33409285
   0.50039514  0.50039514  0.33407593
   0.83295813  0.16665330  0.33391088
   0.16665297  0.83295783  0.33391088
   0.99940747  0.99940747  0.33400417
   0.16685929  0.33322522  0.33391126
   0.33322558  0.16685929  0.33391126
   0.00007641  0.33334676  0.37544176
   0.33334712  0.00007641  0.37544176
   0.00004455  0.83332540  0.37545060
   0.16684440  0.66675274  0.37533158
   0.33339708  0.49993908  0.37539854
   0.49993908  0.33339673  0.37539854
   0.66675244  0.16684473  0.37533158
   0.83332570  0.00004455  0.37545060
   0.50024502  0.83354980  0.37539744
   0.66678778  0.66678808  0.37559303
   0.83355009  0.50024502  0.37539744
   0.16653105  0.16653137  0.37537394
   0.00011399  0.50009292  0.41688860
   0.50009292  0.00011399  0.41688860
   0.33345505  0.66674721  0.41688568
   0.66674691  0.33345469  0.41688568
   0.66677972  0.83337371  0.41699527
   0.83337401  0.66678002  0.41699527
   0.50011450  0.50011450  0.41698987
   0.83340251  0.16675267  0.41690341
   0.16675234  0.83340221  0.41690341
   0.00004659  0.00004659  0.41688774
   0.16673461  0.33336847  0.41689548
   0.33336883  0.16673461  0.41689548
   0.00004132  0.33335165  0.45849285
   0.33335201  0.00004132  0.45849285
   0.99994243  0.83334526  0.45848752
   0.16668362  0.66670616  0.45846553
   0.33342483  0.50006254  0.45851092
   0.50006254  0.33342447  0.45851092
   0.66670587  0.16668395  0.45846553
   0.83334556  0.99994243  0.45848752
   0.50009056  0.83332129  0.45851327
   0.66672799  0.66672829  0.45856528
   0.83332159  0.50009056  0.45851327
   0.16668784  0.16668817  0.45842918
   0.00002055  0.49997628  0.50011124
   0.49997628  0.00002055  0.50011124
   0.33345152  0.66671288  0.50009062
   0.66671258  0.33345116  0.50009062
   0.66677072  0.83346173  0.50009919
   0.83346203  0.66677102  0.50009919
   0.50001961  0.50001961  0.50010635
   0.83340746  0.16668160  0.50010507
   0.16668127  0.83340716  0.50010507
   0.99994478  0.99994478  0.50005938
   0.16665325  0.33331251  0.50009939
   0.33331287  0.16665325  0.50009939
   0.99999618  0.33327773  0.54175629
   0.16656979  0.16657011  0.54167435
   0.33327809  0.99999618  0.54175629
   0.00000178  0.83342190  0.54169816
   0.16661823  0.66664566  0.54170504
   0.33327490  0.49995022  0.54171659
   0.49995022  0.33327455  0.54171659
   0.66664536  0.16661856  0.54170504
   0.83342220  0.00000178  0.54169816
   0.49999517  0.83333367  0.54171876
   0.66669147  0.66669176  0.54173098
   0.83333397  0.49999517  0.54171876
   0.00005125  0.00005125  0.58333538
   0.00002673  0.49996352  0.58334992
   0.16666016  0.33325438  0.58334165
   0.33325473  0.16666016  0.58334165
   0.49996352  0.00002673  0.58334992
   0.16658816  0.83342608  0.58335005
   0.33332819  0.66667679  0.58334685
   0.50002987  0.50002987  0.58333741
   0.66667649  0.33332784  0.58334685
   0.83342638  0.16658849  0.58335005
   0.66682727  0.83348372  0.58333731
   0.83348402  0.66682757  0.58333731
   0.00002057  0.33324944  0.62499989
   0.16652440  0.16652473  0.62495988
   0.33324980  0.00002057  0.62499989
   0.00003697  0.83351838  0.62497036
   0.16664086  0.66670207  0.62495597
   0.33322067  0.49991839  0.62495625
   0.49991839  0.33322031  0.62495625
   0.66670178  0.16664119  0.62495597
   0.83351868  0.00003697  0.62497036
   0.50002529  0.83334800  0.62495968
   0.66674689  0.66674719  0.62496372
   0.83334829  0.50002529  0.62495968
   0.00005236  0.00005236  0.66659699
   0.00002285  0.49995155  0.66659587
   0.16669236  0.33329505  0.66659396
   0.33329540  0.16669236  0.66659396
   0.49995155  0.00002285  0.66659587
   0.16659835  0.83339310  0.66659664
   0.33334550  0.66667985  0.66657781
   0.50013109  0.50013109  0.66658315
   0.66667955  0.33334515  0.66657781
   0.83339340  0.16659868  0.66659664
   0.66678632  0.83342550  0.66659176
   0.83342580  0.66678662  0.66659176
   0.00000953  0.33332517  0.70821897
   0.16664478  0.16664510  0.70822786
   0.33332553  0.00000953  0.70821897
   0.99999087  0.83334803  0.70823651
   0.16667928  0.66663511  0.70819432
   0.33338515  0.50006995  0.70819786
   0.50006995  0.33338479  0.70819786
   0.66663481  0.16667961  0.70819432
   0.83334833  0.99999087  0.70823651
   0.49995953  0.83332334  0.70819924
   0.66668744  0.66668774  0.70820411
   0.83332364  0.49995953  0.70819924
   0.00001984  0.00001984  0.74985989
   0.99996061  0.49996310  0.74981084
   0.16673447  0.33338021  0.74981647
   0.33338057  0.16673447  0.74981647
   0.49996310  0.99996061  0.74981084
   0.16663428  0.83333606  0.74981467
   0.33335147  0.66668192  0.74982331
   0.50000496  0.50000496  0.74980611
   0.66668162  0.33335111  0.74982331
   0.83333636  0.16663460  0.74981467
   0.66668584  0.83338262  0.74981672
   0.83338292  0.66668613  0.74981672
   0.99997525  0.33334011  0.79139517
   0.16675010  0.16675043  0.79137267
   0.33334047  0.99997525  0.79139517
   0.99996995  0.83319480  0.79137677
   0.16666097  0.66659008  0.79137992
   0.33333650  0.50003865  0.79138883
   0.50003865  0.33333615  0.79138883
   0.66658978  0.16666130  0.79137992
   0.83319510  0.99996995  0.79137677
   0.49988612  0.83328885  0.79138821
   0.66660159  0.66660189  0.79140374
   0.83328915  0.49988612  0.79138821
   0.99998845  0.99998845  0.83287508
   0.99997407  0.50003884  0.83289886
   0.16670525  0.33354720  0.83286710
   0.33354755  0.16670525  0.83286710
   0.50003884  0.99997407  0.83289886
   0.16680701  0.83331776  0.83285877
   0.33333678  0.66666166  0.83294212
   0.49986994  0.49986994  0.83290886
   0.66666136  0.33333642  0.83294212
   0.83331806  0.16680734  0.83285877
   0.66646880  0.83322100  0.83287711
   0.83322129  0.66646910  0.83287711
   0.99996987  0.33347113  0.87430976
   0.16671350  0.16671383  0.87423329
   0.33347149  0.99996987  0.87430976
   0.99995884  0.83320748  0.87423153
   0.16657823  0.66658228  0.87441332
   0.33340024  0.49998650  0.87441619
   0.49998650  0.33339989  0.87441619
   0.66658198  0.16657856  0.87441332
   0.83320778  0.99995884  0.87423153
   0.50001720  0.83339282  0.87442050
   0.66651535  0.66651565  0.87434147
   0.83339312  0.50001720  0.87442050
   0.00008712  0.00008712  0.91544275
   0.00009047  0.50030925  0.91579965
   0.16676814  0.33368565  0.91566899
   0.33368600  0.16676814  0.91566899
   0.50030925  0.00009047  0.91579965
   0.16693559  0.83348926  0.91567409
   0.33340020  0.66682548  0.91577215
   0.49996395  0.49996395  0.91583465
   0.66682518  0.33339984  0.91577215
   0.83348955  0.16693592  0.91567409
   0.66651765  0.83310794  0.91572340
   0.83310824  0.66651794  0.91572340
   0.00010139  0.33362701  0.95745325
   0.16626484  0.16626517  0.95700390
   0.33362736  0.00010139  0.95745325
   0.99993114  0.83394474  0.95706050
   0.16707063  0.66776488  0.95726112
   0.33253955  0.49976538  0.95726293
   0.49976538  0.33253919  0.95726293
   0.66776458  0.16707095  0.95726112
   0.83394504  0.99993114  0.95706050
   0.50048629  0.83282997  0.95729125
   0.66657658  0.66657687  0.95757114
   0.83283027  0.50048629  0.95729125
   0.99983757  0.23121851  0.07401410
   0.23121818  0.99983757  0.07401410
   0.77150481  0.77150481  0.07462388
[...]
      2.74780      4.75933     15.71652         0.000145      0.000252     -0.004832
      8.28721      1.61099     15.66858        -0.002230     -0.000724      0.000051
     -2.74845      7.98242     15.66858         0.000488     -0.002294      0.000051
      9.23232      3.18746     18.26097        -0.002443      0.000598      0.002438
     -1.85573      9.58915     18.26097         0.001739     -0.001817      0.002438
     -4.61711      7.99175     18.25737        -0.000157     -0.001353     -0.000551
     -1.84212      6.39074     18.24778         0.001022     -0.001409      0.004056
      0.91333      4.78561     18.25155         0.000650     -0.001777     -0.001780
      3.68780      3.18377     18.25155        -0.001864     -0.000326     -0.001780
      6.45560      1.60005     18.24778        -0.001731      0.000180      0.004056
      9.22962     -0.00265     18.25737        -0.001093     -0.000813     -0.000551
      0.91504      7.99648     18.24724         0.000283      0.001433     -0.000447
      3.69271      6.39597     18.27061        -0.000410     -0.000709      0.003425
      6.46764      4.79068     18.24724         0.001100      0.000962     -0.000447
      0.91080      1.57756     18.26156        -0.002148     -0.003720      0.001223
     -2.77442      4.79372     20.83297        -0.000350     -0.000357      0.001745
      5.53869     -0.00586     20.83297        -0.000134     -0.000482      0.001745
      0.00093      6.39216     20.83481         0.000504     -0.000421     -0.000192
      5.53530      3.19689     20.83481        -0.000616      0.000226     -0.000192
      2.76696      7.98982     20.84415         0.000561     -0.003279      0.005374
      5.53591      6.39117     20.84415        -0.003120     -0.001154      0.005374
      2.76861      4.79538     20.84457        -0.000546     -0.000946      0.003690
      8.30428      1.59181     20.83427         0.001444      0.001152      0.001662
     -2.77359      7.98762     20.83427         0.000276      0.001826      0.001662
      5.53511      9.58709     20.83713        -0.001116     -0.001932      0.001312
     -0.00232      3.18986     20.83578        -0.001590      0.001942      0.002587
      2.76366      1.59292     20.83578         0.002477     -0.000405      0.002587
     -1.85245      3.18954     23.42793        -0.001534      0.000938      0.005534
      3.68845     -0.00950     23.42793         0.001580     -0.000859      0.005534
     -4.62316      7.98967     23.42700        -0.000998     -0.000709      0.002943
     -1.85123      6.39075     23.41957        -0.003903     -0.000337      0.003462
      0.91930      4.78952     23.42375         0.000731     -0.001669      0.002805
      3.68820      3.19089     23.42375        -0.001811     -0.000202      0.002805
      6.46016      1.59217     23.41957         0.001659     -0.003548      0.003462
      9.23084     -0.00894     23.42700        -0.000115     -0.001219      0.002943
      0.92027      7.99269     23.42219         0.002774      0.001030      0.001627
      3.69039      6.39195     23.43440        -0.000030     -0.000051      0.006393
      6.46174      4.79332     23.42219        -0.000495      0.002917      0.001627
      0.91700      1.58829     23.42370         0.000610      0.001056      0.004896
     -2.77665      4.78922     26.01386        -0.001228      0.000661      0.004689
      5.53592     -0.01004     26.01386         0.001187     -0.000732      0.004689
     -0.00503      6.38979     26.01220         0.001152     -0.000032      0.005819
      5.53623      3.19054     26.01220        -0.000604      0.000982      0.005819
      2.76657      7.99009     26.01755        -0.001087     -0.000139      0.006460
      5.53634      6.39097     26.01755         0.000423     -0.001011      0.006460
      2.76568      4.79029     26.01870        -0.001299     -0.002250      0.007612
      8.30728      1.59038     26.01331        -0.000392      0.000918      0.003903
     -2.77633      7.98950     26.01331         0.000991      0.000120      0.003903
     -0.00667     -0.01156     26.01529        -0.000465     -0.000805      0.006367
     -0.00587      3.18885     26.01429         0.000880      0.001946      0.005513
      2.76456      1.58934     26.01429         0.001246      0.001735      0.005513
     -1.85425      3.18720     28.61061         0.001946     -0.002087      0.005460
      3.68732     -0.01223     28.61061        -0.002781      0.000642      0.005460
      6.45911      7.98920     28.60583        -0.002043      0.000789      0.002612
     -1.85413      6.38791     28.60743        -0.002804      0.000218      0.002489
      0.91754      4.78831     28.61026         0.001611     -0.002161      0.001440
      3.68803      3.18876     28.61026        -0.002677      0.000315      0.001440
      6.45916      1.58823     28.60743         0.001591     -0.002320      0.002489
      3.68930      9.58836     28.60583         0.001705     -0.001375      0.002612
      0.91844      7.98810     28.60892         0.002236      0.000721      0.001324
      3.68868      6.38899     28.61217         0.001096      0.001898      0.002757
      6.45868      4.78944     28.60892        -0.000493      0.002297      0.001324
      0.91649      1.58741     28.60664         0.000247      0.000429      0.002628
     -2.77843      4.78571     31.20726        -0.000658     -0.000636      0.003583
      5.53376     -0.01334     31.20726        -0.000222     -0.000888      0.003583
     -0.00626      6.38707     31.20449         0.002593     -0.000271      0.003929
      5.53449      3.18811     31.20449        -0.001531      0.002110      0.003929
      2.76460      7.98854     31.20354        -0.001546      0.002431      0.001618
      5.53598      6.38849     31.20354         0.002878     -0.000123      0.001618
      2.76377      4.78699     31.20547        -0.000860     -0.001490      0.003721
      8.30635      1.58730     31.20539         0.001180     -0.000889      0.001243
     -2.77853      7.98715     31.20539        -0.001359      0.000577      0.001243
      5.53533      9.58747     31.19957        -0.000083     -0.000144      0.000440
     -0.00785      3.18591     31.20652         0.000497      0.000672      0.001942
      2.76301      1.58616     31.20652         0.000334      0.000766      0.001942
      9.22917      3.18582     33.80359         0.000413      0.001970      0.003283
      0.91445      1.58388     33.80144         0.000674      0.001168      0.001332
     -1.85558      9.58561     33.80359         0.001499      0.001343      0.003283
     -4.62693      7.98581     33.80144         0.000172     -0.001684      0.003075
     -1.85591      6.38493     33.80187        -0.000965     -0.002142      0.002219
      0.91511      4.78484     33.80259        -0.001051      0.000251      0.001831
      3.68623      3.18493     33.80259         0.000743     -0.000785      0.001831
      6.45746      1.58521     33.80187        -0.001372     -0.001906      0.002219
      9.22938     -0.01414     33.80144        -0.001544     -0.000693      0.003075
      0.91593      7.98583     33.80124        -0.000440      0.001431      0.001954
      3.68710      6.38624     33.80201         0.000110      0.000190      0.003910
      6.45797      4.78613     33.80124         0.001459      0.000334      0.001954
     -0.00941     -0.01630     36.40223        -0.000141     -0.000245      0.004424
     -2.77967      4.78319     36.40165        -0.000970      0.000486      0.000400
     -0.00883      3.18296     36.40113         0.001079     -0.000346      0.000231
      2.76094      1.58383     36.40113        -0.000839      0.000762      0.000231
      5.53220     -0.01567     36.40165         0.000906     -0.000597      0.000400
     -2.78105      7.98494     36.40017        -0.001960     -0.000104      0.000746
     -0.00881      6.38432     36.39997        -0.000643      0.000316      0.001914
      2.76244      4.78469     36.39939        -0.001384     -0.002397      0.002099
      5.53339      3.18453     36.39997         0.000596     -0.000399      0.001914
      8.30569      1.58401     36.40017         0.000890     -0.001750      0.000746
      2.76372      7.98636     36.39789        -0.000514      0.003361     -0.000026
      5.53453      6.38664     36.39789         0.003168      0.001235     -0.000026
     -1.85668      3.18142     39.00125         0.000118      0.000367     -0.000033
      0.91281      1.58104     38.99876        -0.000184     -0.000318     -0.003660
      3.68354     -0.01722     39.00125         0.000259      0.000285     -0.000033
     -4.62846      7.98434     38.99793        -0.001483      0.001176     -0.004952
     -1.85735      6.38308     38.99703         0.001016     -0.000650     -0.002082
      0.91331      4.78213     38.99705        -0.000375      0.000841     -0.001205
      3.68480      3.18201     38.99705         0.000916      0.000096     -0.001205
      6.45658      1.58303     38.99703        -0.001071      0.000555     -0.002082
      9.22887     -0.01619     38.99793         0.001760     -0.000696     -0.004952
      0.91480      7.98357     38.99578        -0.001324     -0.000942     -0.002564
      3.68602      6.38438     38.99603         0.000048      0.000084      0.001736
      6.45658      4.78403     38.99578        -0.000154     -0.001618     -0.002564
     -0.01079     -0.01869     41.59805         0.000565      0.000978     -0.001920
     -2.78103      4.78068     41.59650        -0.000657     -0.000442     -0.002076
     -0.01008      3.18095     41.59638        -0.000808     -0.000784     -0.001912
      2.75983      1.58174     41.59638        -0.000275     -0.001091     -0.001912
      5.53070     -0.01811     41.59650        -0.000054     -0.000790     -0.002076
     -2.78214      7.98222     41.59506         0.000215      0.000280     -0.000522
     -0.01002      6.38196     41.59389         0.000010      0.000695     -0.002631
      2.76162      4.78327     41.59422        -0.000202     -0.000350     -0.001971
      5.53194      3.18230     41.59389         0.000597      0.000356     -0.002631
      8.30388      1.58171     41.59506         0.000135      0.000326     -0.000522
      2.76221      7.98340     41.59327        -0.000843      0.001146     -0.000883
      5.53273      6.38385     41.59327         0.001414     -0.000157     -0.000883
     -1.85860      3.17975     44.19442        -0.000806     -0.000693     -0.002342
      0.91210      1.57980     44.19498        -0.000694     -0.001202     -0.003748
      3.68305     -0.01972     44.19442        -0.000197     -0.001045     -0.002342
      6.45548      7.98204     44.19107        -0.000042     -0.000660     -0.001822
     -1.85794      6.38004     44.19140        -0.000064      0.001000     -0.004141
      0.91291      4.78119     44.19162        -0.001567      0.000947     -0.003261
      3.68418      3.18119     44.19162         0.001603     -0.000884     -0.003261
      6.45424      1.58100     44.19140         0.000898      0.000445     -0.004141
      3.68491      9.58163     44.19107        -0.000550     -0.000367     -0.001822
      0.91283      7.98093     44.19022        -0.000186     -0.000104     -0.003103
      3.68431      6.38141     44.19053         0.001270      0.002199     -0.000154
      6.45528      4.78100     44.19022         0.000003     -0.000213     -0.003103
     -0.01235     -0.02140     46.79395         0.000488      0.000844     -0.003022
      8.30172      4.78012     46.78644        -0.000317     -0.003235     -0.004311
     -0.01147      3.17937     46.78976        -0.001119      0.000305     -0.002507
      2.75916      1.57975     46.78976         0.000824     -0.000817     -0.002507
     -0.01115      9.57957     46.78644        -0.002643     -0.001892     -0.004311
     -2.78281      7.97928     46.78817         0.000623      0.000844     -0.002323
     -0.01135      6.37958     46.78870        -0.001242      0.001770     -0.004130
      2.75954      4.77966     46.78763         0.000465      0.000806     -0.005262
      5.53055      3.17996     46.78870         0.002154     -0.000190     -0.004130
      8.30167      1.57966     46.78817         0.000420      0.000962     -0.002323
      2.75995      7.98059     46.78681        -0.001327      0.001258     -0.005833
      5.53142      6.38049     46.78681         0.001753     -0.000521     -0.005833
      9.22444      3.17923     49.38195        -0.000470     -0.000576     -0.002513
      0.91130      1.57842     49.38351         0.000099      0.000172     -0.007497
     -1.85892      9.57822     49.38195        -0.000264     -0.000695     -0.002513
      6.45472      7.97817     49.37932         0.003063     -0.000083     -0.007200
     -1.85928      6.37721     49.38248        -0.000816      0.001871     -0.003819
      0.91116      4.77850     49.38304        -0.001854     -0.001222     -0.003395
      3.68272      3.17833     49.38304        -0.000131     -0.002217     -0.003395
      6.45246      1.57843     49.38248         0.002028      0.000229     -0.003819
      3.68194      9.57904     49.37932        -0.001603      0.002611     -0.007200
      0.91082      7.97821     49.38152        -0.000053      0.000609     -0.004192
      3.68245      6.37819     49.38248        -0.000676     -0.001171     -0.003212
      6.45392      4.77790     49.38152         0.000554      0.000259     -0.004192
      5.53004      9.57831     51.96847         0.000651      0.001128     -0.003158
      8.30007      4.77846     51.97143        -0.000603     -0.001228     -0.002851
     -0.01410      3.17858     51.97242        -0.002094      0.004660     -0.003740
      2.75979      1.57708     51.97242         0.005082      0.000516     -0.003740
     -0.01177      9.57730     51.97143        -0.000762     -0.001136     -0.002851
     -2.78218      7.97671     51.97042         0.003653     -0.000357     -0.002070
     -0.01278      6.37699     51.97562        -0.002040      0.001207     -0.003242
      2.75741      4.77597     51.97354        -0.000284     -0.000492     -0.001468
      5.52903      3.17742     51.97562         0.002065     -0.001163     -0.003242
      8.29913      1.57893     51.97042        -0.002136      0.002985     -0.002070
      2.75706      7.97665     51.97008        -0.004788      0.000772     -0.000536
      5.52946      6.37601     51.97008         0.003063     -0.003761     -0.000536
      9.22228      3.17810     54.55612         0.000599      0.000042      0.000152
      0.90972      1.57568     54.55431         0.000058      0.000100      0.004928
     -1.85882      9.57578     54.55612        -0.000263      0.000540      0.000152
      6.45315      7.97591     54.54975         0.000558     -0.000180      0.000532
     -1.86153      6.37475     54.56406        -0.003960      0.000392     -0.002865
      0.91077      4.77561     54.56424         0.001691     -0.004996     -0.003810
      3.68041      3.17655     54.56424        -0.005172     -0.001033     -0.003810
      6.45145      1.57524     54.56406         0.002319     -0.003233     -0.002865
      3.68077      9.57654     54.54975        -0.000435      0.000394      0.000532
      0.91032      7.97682     54.56303         0.002284      0.004504     -0.004992
      3.68059      6.37498     54.55810         0.000091      0.000158      0.001742
      6.45297      4.77677     54.56303         0.002759      0.004230     -0.004992
     -0.01473     -0.02552     57.12692         0.000628      0.001087     -0.000292
     -2.78641      4.77693     57.14771         0.002690     -0.002713     -0.004344
     -0.01555      3.17753     57.13955         0.004140      0.004455     -0.000432
      2.75960      1.57530     57.13955         0.001788      0.005813     -0.000432
      5.53015     -0.02463     57.14771        -0.003694      0.000974     -0.004344
     -2.78308      7.97598     57.13839         0.001568     -0.006011      0.000949
     -0.01436      6.37618     57.14451        -0.001293     -0.000260     -0.003506
      2.75655      4.77448     57.14841         0.001647      0.002853     -0.005354
      5.52911      3.17565     57.14451         0.000421     -0.001250     -0.003506
      8.29894      1.57778     57.13839        -0.005989     -0.001648      0.000949
      2.75685      7.97318     57.13998        -0.007586      0.002455      0.000656
      5.52655      6.37409     57.13998         0.005919     -0.005342      0.000656
     -1.86340      3.17547     59.74754         0.000308     -0.003672      0.004004
      0.90585      1.56899     59.71950         0.001027      0.001779      0.009424
      3.68175     -0.02602     59.74754        -0.003334     -0.001569      0.004004
      6.44738      7.98060     59.71858         0.002099     -0.003195      0.010406
     -1.86400      6.38372     59.73406        -0.002662     -0.005181      0.000130
      0.90108      4.77110     59.73418         0.005989     -0.000209     -0.001344
      3.68135      3.16590     59.73418        -0.003175      0.005082     -0.001344
      6.46046      1.57759     59.73406        -0.003156     -0.004896      0.000130
      3.68772      9.57389     59.71858        -0.003817      0.000220      0.010406
      0.91726      7.96903     59.73446        -0.003375      0.005388     -0.000689
      3.67955      6.37317     59.75193         0.001594      0.002761      0.002847
      6.44275      4.77888     59.73446         0.006354     -0.000229     -0.000689
      9.80069      2.21945      4.61509         0.000013      0.005711      0.014088
     -2.97825      9.59738      4.61509         0.004939      0.002866      0.014088
      4.27594      7.40615      4.65222        -0.005539     -0.009594      0.006101
      1.27889      2.21511      8.37661         0.003472      0.006014     -0.010956
     -4.24762      7.39411      8.35140        -0.005357     -0.004284     -0.006608
      8.52730      0.01851      8.35140        -0.001031     -0.006781     -0.006608
      0.00026      0.00045      3.01711        -0.000797     -0.001380      0.002448
     -3.94233      6.85017      5.37461         0.005799     -0.008433     -0.012150
      1.58639      2.74770      5.37325         0.008538      0.014788     -0.001301
      7.90358      0.01092      5.37461        -0.010203      0.000805     -0.012150
     -1.58084      2.74871      7.59433         0.000544      0.013718      0.003758
      3.17088      0.00531      7.59433         0.011608      0.007330      0.003758
      3.95451      6.84942      7.64601        -0.005529     -0.009576      0.009990
      5.53044      9.57900      9.99688        -0.002826     -0.004894      0.017565
      3.67409      6.36371     13.06122        -0.000883     -0.001530     -0.012250
 -----------------------------------------------------------------------------------
    total drift:                                0.004919      0.003329     -0.011663


--------------------------------------------------------------------------------------------------------



 mean value of Nose-termostat <S>:     1.000 mean value of <T> :     0.000
 mean temperature <T/S>/<1/S>  :     0.000

     LOOP+:  VPU time 9194.45: CPU time 9211.75
  
  
 General timing and accounting informations for this job:
 ========================================================
  
                  Total CPU time used (sec):     9262.476
                            User time (sec):     8990.732
                          System time (sec):      271.744
                         Elapsed time (sec):     9281.736
  
                   Maximum memory used (kb):     2375216.
                   Average memory used (kb):           0.
  
                          Minor page faults:      6858790
                          Major page faults:            4
                 Voluntary context switches:        13004
